# vtk DataFile Version 3.0
vtk output
ASCII
DATASET POLYDATA
POINTS 1425 float
-0.00390762 -0.00604281 0 -0.00219047 -0.00689329 0 -0.00297733 0.000560836 0 
0.00278164 -0.000825601 0 -0.00123161 0.00688955 0 0.00525344 0.00584784 0 
-0.00891172 -0.0159008 0 0.0024872 -0.0214953 0 -0.0121653 -0.00650937 0 
0.0110187 -0.0137691 0 -0.0111289 0.00185469 0 0.0143544 -0.00372589 0 
-0.00854054 0.0101597 0 0.0163854 0.00613254 0 0.000660502 0.0172404 0 
0.014508 0.0158889 0 -0.0178234 -0.0193714 0 0.028893 -0.0350197 0 
-0.0213422 -0.00689253 0 0.0327278 -0.0213543 0 -0.0205213 0.00331657 0 
0.0334324 -0.00764351 0 -0.0177785 0.0131516 0 0.0343035 0.00505525 0 
-0.0132883 0.0224696 0 0.0365698 0.0172795 0 -0.0113406 -0.0460354 0 
0.0508303 -0.0593944 0 -0.0280593 -0.0233897 0 0.0578881 -0.0446127 0 
-0.0317992 -0.00725134 0 0.0593125 -0.0277862 0 -0.0313016 0.00538616 0 
0.0592194 -0.0114245 0 -0.0283537 0.0164979 0 0.0578813 0.00358244 0 
-0.02431 0.0269463 0 0.0591757 0.0168512 0 -0.0144409 0.0369195 0 
0.0668606 0.0303764 0 0.0553402 0.0425619 0 0.0641151 0.0392225 0 
-0.00394024 -0.0742911 0 0.0549199 -0.0827837 0 -0.0304944 -0.0481616 0 
0.0726913 -0.0676105 0 -0.039792 -0.0270706 0 0.0769356 -0.0498119 0 
-0.04346 -0.00697692 0 0.0786535 -0.0302207 0 -0.0432905 0.00889429 0 
0.0803405 -0.0119973 0 -0.039613 0.0206565 0 0.0806114 0.00538373 0 
-0.0354799 0.031566 0 0.0803972 0.0212289 0 -0.0306784 0.0404861 0 
0.0775561 0.0346258 0 0.0360672 0.0581761 0 0.0721914 0.0455813 0 
0.00100661 -0.103834 0 0.0547636 -0.110382 0 -0.030303 -0.0774125 0 
0.0752322 -0.0926474 0 -0.0505411 -0.0475357 0 0.0866804 -0.0740895 0 
-0.0529938 -0.0297835 0 0.0926428 -0.0517749 0 -0.0561728 -0.00603865 0 
0.0964083 -0.0311473 0 -0.0553106 0.0137482 0 0.0984286 -0.0106201 0 
-0.0503356 0.0253091 0 0.0979273 0.00880683 0 -0.044223 0.0365323 0 
0.0951402 0.0268197 0 -0.0368779 0.0464644 0 0.0898626 0.0426182 0 
-0.00242009 0.0675864 0 0.0818584 0.0556256 0 0.00863108 -0.136593 0 
0.0559865 -0.142464 0 -0.0334319 -0.107335 0 0.074007 -0.124789 0 
-0.066191 -0.0679067 0 0.0931603 -0.104001 0 -0.0657408 -0.0496283 0 
0.104278 -0.0814338 0 -0.0666955 -0.0312435 0 0.111541 -0.0564683 0 
-0.070114 -0.000758914 0 0.116103 -0.0320491 0 -0.0658295 0.0163796 0 
0.117645 -0.00803274 0 -0.0604171 0.0302279 0 0.116232 0.0145105 0 
-0.0531754 0.043209 0 0.111742 0.0355087 0 -0.0439503 0.0550737 0 
0.104185 0.0539761 0 -0.0248333 0.0719354 0 0.0931393 0.0694608 0 
0.0267264 -0.170757 0 0.0544778 -0.171366 0 -0.0330554 -0.143048 0 
0.0713446 -0.160436 0 -0.108484 0.0737407 0 -0.106119 0.077704 0 
-0.0831717 -0.0904471 0 0.0898101 -0.140968 0 -0.148512 0.0397812 0 
-0.129097 0.0735073 0 -0.0870097 -0.0662625 0 0.112945 -0.116958 0 
-0.170875 0.0355675 0 -0.153259 0.0715753 0 -0.0891432 -0.0427056 0 
0.124707 -0.0906438 0 -0.202084 0.0284468 0 -0.186767 0.058015 0 
-0.0878138 -0.0195191 0 0.133249 -0.0609615 0 -0.231206 0.0166887 0 
-0.209825 0.0691068 0 -0.232795 0.0163373 0 -0.295575 0.0315052 0 
-0.0847781 0.00232501 0 0.138406 -0.0321376 0 -0.260257 0.00990837 0 
-0.233933 0.0807849 0 -0.183049 0.0303475 0 -0.279091 0.0629054 0 
-0.0783101 0.0197464 0 0.139753 -0.00422773 0 -0.288829 0.0112853 0 
-0.269776 0.0690481 0 -0.130791 0.0401183 0 -0.170136 0.0577036 0 
-0.0720235 0.0356837 0 0.137252 0.0226092 0 -0.124394 0.0607545 0 
-0.142022 0.0725754 0 -0.0638963 0.0509651 0 0.13084 0.0473714 0 
-0.10721 0.0748504 0 -0.1118 0.0790258 0 -0.0528127 0.0651368 0 
0.120661 0.0689336 0 -0.0308449 0.0852696 0 0.106442 0.0867463 0 
-0.0569395 0.00744346 0 -0.0413258 0.0404777 0 -0.0691316 0.00550695 0 
-0.0604431 0.0301621 0 -0.0833207 0.00517779 0 -0.0777709 0.0215754 0 
-0.102865 -0.00241908 0 -0.0979108 0.0123208 0 -0.0793441 0.0542483 0 
-0.0681447 0.0724724 0 0.00964202 -0.191045 0 0.0503356 -0.196544 0 
-0.121272 -0.00410443 0 -0.105655 0.0328948 0 -0.0986514 0.0488722 0 
-0.0768175 0.0871289 0 -0.0894287 -0.128749 0 0.0861659 -0.183454 0 
-0.141677 -0.00703405 0 -0.0908004 0.0967812 0 -0.228247 -0.106528 0 
-0.29651 -0.10746 0 -0.107277 -0.0885523 0 0.102989 -0.16006 0 
-0.162939 -0.00777127 0 -0.103671 0.108279 0 -0.214621 -0.0827123 0 
-0.317187 -0.0807235 0 -0.10811 -0.0641139 0 0.13285 -0.131347 0 
-0.186038 -0.0108122 0 -0.123837 0.115791 0 -0.221405 -0.0524413 0 
-0.332113 -0.0458707 0 -0.108021 -0.0386731 0 0.147534 -0.100889 0 
-0.2343 -0.109726 0 -0.220917 -0.0535714 0 -0.215167 -0.0316726 0 
-0.147554 0.127719 0 -0.211505 -0.0254283 0 -0.34866 -0.00415604 0 
-0.105239 -0.0154594 0 0.15843 -0.0652605 0 -0.257877 -0.114216 0 
-0.1677 0.145707 0 -0.15739 -0.0075199 0 -0.354039 0.0406987 0 
-0.100793 0.00586654 0 0.164193 -0.0307633 0 -0.281428 -0.11388 0 
-0.193046 0.159001 0 -0.0877995 0.00300771 0 -0.350462 0.0858901 0 
-0.0925661 0.024697 0 0.165231 0.00205726 0 -0.306122 -0.098346 0 
-0.23547 0.151997 0 -0.0520481 0.0124864 0 -0.0819725 0.0210011 0 
-0.102971 0.0283079 0 -0.316671 0.121549 0 -0.0852305 0.0413503 0 
0.161622 0.0331547 0 -0.338362 -0.0280595 0 -0.279652 0.141004 0 
-0.045971 0.0233669 0 -0.060348 0.0301904 0 -0.100228 0.0477049 0 
-0.263035 0.144824 0 -0.077009 0.0588773 0 0.153067 0.0622432 0 
-0.357674 0.0465419 0 -0.333783 0.108865 0 -0.0395788 0.0335123 0 
-0.0466077 0.0381281 0 -0.0734022 0.0566449 0 -0.212531 0.160113 0 
-0.0638138 0.0758722 0 0.139714 0.0875104 0 -0.0721793 0.0788986 0 
-0.113869 0.110685 0 -0.0396303 0.0991183 0 0.121728 0.107964 0 
-0.000864222 0.122236 0 0.10263 0.123535 0 -0.0440785 -0.000162061 0 
-0.0242589 0.045132 0 -0.056124 -0.00690494 0 -0.0276808 0.0551813 0 
-0.0684004 -0.0108613 0 -0.033132 0.0655945 0 -0.0885253 -0.0278507 0 
-0.0415801 0.0763672 0 -0.108305 -0.0444605 0 -0.0514018 0.0888946 0 
-0.0474331 -0.204383 0 0.0453154 -0.226176 0 -0.128576 -0.0559344 0 
-0.0618629 0.103256 0 -0.11908 -0.127896 0 0.0997131 -0.205706 0 
-0.151093 -0.0706695 0 -0.0756417 0.116662 0 -0.18604 -0.114724 0 
-0.318722 -0.133761 0 -0.12875 -0.0894415 0 0.123041 -0.181119 0 
-0.176004 -0.0904925 0 -0.0933859 0.125781 0 -0.166776 -0.0874199 0 
-0.356205 -0.100579 0 -0.128839 -0.0629254 0 0.153979 -0.151136 0 
-0.208057 -0.134788 0 -0.0875279 0.16806 0 -0.140496 -0.0625464 0 
-0.391375 -0.0579079 0 -0.127007 -0.0369848 0 0.174089 -0.113185 0 
-0.231952 -0.144381 0 -0.106392 0.182748 0 -0.0968867 -0.0388772 0 
-0.428353 -0.0049017 0 -0.123164 -0.0130083 0 0.187965 -0.068997 0 
-0.259178 -0.145795 0 -0.124863 0.203652 0 -0.0825467 -0.0224946 0 
-0.453398 0.0592919 0 -0.11761 0.00991584 0 0.19438 -0.0277552 0 
-0.288207 -0.144236 0 -0.135802 0.233874 0 -0.0548831 -0.00624476 0 
-0.426211 0.110194 0 -0.110112 0.0299765 0 0.195005 0.0105672 0 
-0.320111 -0.13278 0 -0.17709 0.23755 0 -0.0373672 0.00683916 0 
-0.393406 0.158281 0 -0.0991212 0.0470954 0 0.189993 0.0468187 0 
-0.356823 -0.0999063 0 -0.208874 0.250606 0 -0.0310334 0.0173966 0 
-0.35578 0.20003 0 -0.0919138 0.0677295 0 0.179246 0.0800061 0 
-0.394078 -0.0539904 0 -0.286831 0.215335 0 -0.025816 0.0275057 0 
-0.258591 0.204119 0 -0.0804962 0.0828913 0 0.162177 0.109706 0 
-0.428762 0.00407005 0 -0.340945 0.207382 0 -0.0237202 0.0386219 0 
-0.0834797 0.119687 0 -0.0940443 0.131893 0 -0.244792 0.248594 0 
-0.0505558 0.113539 0 0.139615 0.133693 0 -0.0900016 0.158295 0 
-0.159905 0.230696 0 -0.0231614 0.134647 0 0.115661 0.148258 0 
-0.0192229 0.00790725 0 -0.0134464 0.0223402 0 -0.0314543 -0.0100145 0 
-0.0134706 0.0374563 0 -0.0420948 -0.0166413 0 -0.0144853 0.0496668 0 
-0.0540909 -0.0234442 0 -0.0168121 0.06186 0 -0.0669504 -0.0290577 0 
-0.020367 0.0748765 0 -0.0886629 -0.0625961 0 -0.0255943 0.0889936 0 
-0.107206 -0.082249 0 -0.0322447 0.104715 0 -0.101413 -0.205621 0 
0.0307621 -0.263021 0 -0.127528 -0.106091 0 -0.039016 0.122821 0 
-0.196935 -0.160143 0 -0.251508 -0.18028 0 -0.146299 -0.129329 0 
0.0774433 -0.26224 0 -0.149693 -0.119615 0 -0.048044 0.140668 0 
-0.159039 -0.126987 0 -0.346801 -0.167001 0 -0.151912 -0.0895358 0 
0.147519 -0.215588 0 -0.176348 -0.145673 0 -0.0596302 0.155007 0 
-0.110709 -0.0888402 0 -0.384858 -0.134729 0 -0.150316 -0.0617166 0 
0.182605 -0.176887 0 -0.20145 -0.162838 0 -0.0597414 0.190312 0 
-0.0925309 -0.0656576 0 -0.42474 -0.0916604 0 -0.147121 -0.0353052 0 
0.206446 -0.129329 0 -0.22807 -0.175022 0 -0.0754094 0.210574 0 
-0.0809305 -0.0469652 0 -0.508679 -0.00253507 0 -0.142349 -0.00996965 0 
0.223134 -0.071346 0 -0.259133 -0.181076 0 -0.0917446 0.232885 0 
-0.0720566 -0.0321025 0 -0.543414 0.073209 0 -0.135879 0.0155292 0 
0.229697 -0.02326 0 -0.293345 -0.181952 0 -0.113458 0.254758 0 
-0.0282413 -0.00733349 0 -0.51141 0.136832 0 -0.12906 0.038996 0 
0.230009 0.0201783 0 -0.331624 -0.174552 0 -0.139347 0.276737 0 
-0.0210821 0.00338765 0 -0.464341 0.194116 0 -0.117186 0.0573428 0 
0.223645 0.0624713 0 -0.384919 -0.134672 0 -0.160944 0.303493 0 
-0.0169567 0.0128706 0 -0.398801 0.237997 0 -0.107709 0.0751926 0 
0.210209 0.101221 0 -0.426495 -0.0897514 0 -0.226908 0.307153 0 
-0.0134552 0.0225473 0 -0.348863 0.27777 0 -0.0908438 0.0967234 0 
0.189059 0.135311 0 -0.463526 -0.050801 0 -0.283596 0.309308 0 
-0.0134669 0.0367503 0 -0.291411 0.306873 0 -0.0635537 0.127949 0 
0.160427 0.162737 0 -0.500032 -0.0142928 0 -0.410783 0.232212 0 
-0.0185284 0.0679391 0 -0.20845 0.308722 0 -0.0388146 0.149302 0 
0.128494 0.178056 0 -0.536125 0.0522881 0 -0.514684 0.131764 0 
-0.0510041 0.169192 0 -0.078624 0.215178 0 -0.158851 0.301216 0 
-0.163655 0.304809 0 -0.0201537 0.164337 0 0.106885 0.18033 0 
-0.0117509 -0.00938333 0 -0.00370834 0.0162525 0 -0.0188963 -0.0167703 0 
-0.0035323 0.0276255 0 -0.0276475 -0.0246479 0 -0.00339973 0.0403559 0 
-0.0379427 -0.0339582 0 -0.00358824 0.0533672 0 -0.0504559 -0.0479455 0 
-0.00464506 0.0669066 0 -0.0661602 -0.0696383 0 -0.00645764 0.0817102 0 
-0.0826114 -0.0925779 0 -0.00910634 0.0982426 0 -0.0995964 -0.112048 0 
-0.0120702 0.117694 0 -0.145186 -0.204516 0 -0.0170331 -0.301744 0 
-0.118263 -0.129889 0 -0.0142373 0.140253 0 -0.178 -0.182559 0 
[...]
POINT_DATA 1425
SCALARS BIP float
LOOKUP_TABLE default
6.20334 5.08505 6.70985 4.00126 6.7684 3.8276 6.09713 5.35512 6.49623 
3.38251 7.15732 2.44286 7.50653 3.13575 7.21587 3.94959 5.60355 3.46463 
6.25447 3.25509 6.59435 2.61853 6.81917 1.42099 7.07252 2.13031 4.44113 
2.97041 5.19914 2.40184 5.21062 2.55961 5.85041 1.58202 5.91192 1.506 
5.94231 1.13293 5.05837 1.42515 2.49445 2.12855 5.39335 2.63342 3.7588 
1.68669 5.23585 1.50026 4.84823 1.48982 4.76699 1.27463 4.54001 1.32605 
4.16873 1.48775 4.00378 1.84889 3.95354 2.16204 6.38249 3.20175 5.64061 
2.52198 5.84112 2.29098 5.60195 1.5971 5.03203 1.75936 3.32262 1.6529 
2.8721 1.52778 2.78844 1.83258 3.16383 2.1104 4.67546 2.59155 5.01339 
3.59241 5.84542 2.90521 7.91124 3.44494 6.98092 2.33842 6.36907 2.23925 
5.01303 2.28105 3.34857 2.1637 2.55503 2.18037 2.88312 2.24613 3.022 
2.3253 3.50133 2.90182 5.89932 5.14466 4.51082 4.12891 2.50486 2.32393 
7.48105 3.73566 1.55558 1.77701 6.21785 3.4527 1.51 1.57232 5.93006 
2.58832 1.65875 1.59881 5.56644 2.62025 1.68737 1.57021 1.69065 2.48185 
5.36306 2.49444 1.77399 2.31009 1.51903 2.34041 3.0262 2.52801 1.95369 
2.13244 3.14674 1.75543 2.99852 2.36966 2.59048 1.74194 2.81362 2.34211 
2.4948 1.96245 2.54121 2.51908 2.31174 3.10074 3.92707 2.92377 4.75919 
2.54745 5.17792 2.78001 5.07821 5.29446 3.09127 2.15877 3.93234 5.74951 
4.66204 3.31933 3.09293 1.70302 7.13444 4.2818 3.44908 1.44005 1.96181 
1.85836 4.54545 3.96548 2.82743 0.866346 1.23398 2.01231 4.36052 4.11034 
2.07447 0.435184 1.2016 2.16975 4.65731 2.6061 1.8232 1.24138 1.09394 
0.836377 1.13384 2.30058 5.00784 2.93482 1.59142 0.870986 2.99351 2.73481 
4.76257 2.89295 1.45882 0.617228 5.12522 2.16234 3.13261 3.06199 2.04119 
0.661409 3.62439 2.99989 3.43602 2.40778 3.68114 2.51179 2.23666 1.59509 
3.55914 2.55205 3.04591 1.1284 3.07297 2.44771 2.73598 2.44705 3.42483 
2.83976 2.99706 0.441096 2.02146 2.62111 1.92711 0.448545 1.67336 3.4006 
4.38722 3.66487 4.93434 4.72821 5.05874 3.87529 5.74937 2.65068 5.59683 
1.94278 4.59774 1.20138 3.42274 5.54349 3.74 1.39217 6.37776 3.43732 
3.10018 1.25097 3.71187 1.77612 4.15818 4.32761 2.74153 0.898164 3.09134 
1.91478 3.72316 4.03091 3.2796 0.563372 3.29992 2.13363 3.99057 2.6874 
2.03545 0.500093 5.41707 2.74541 4.77186 2.95317 1.9858 0.401235 5.80065 
2.28561 3.78764 2.73206 2.0335 0.460403 5.01314 2.40504 3.63676 2.66571 
1.77226 0.402338 5.39618 2.35705 3.02818 2.27881 1.92018 0.455151 5.63351 
1.05213 2.80891 2.04058 2.15138 0.791974 5.78544 0.381625 1.81788 2.49342 
2.83433 1.19791 5.35401 1.13887 0.843202 0.591128 1.07247 3.32312 0.661486 
0.390201 2.32533 3.61568 6.74127 7.08266 5.21314 4.86077 5.21486 4.96716 
5.49588 4.57372 6.23945 3.66606 6.31865 2.58703 4.48095 1.68163 5.0988 
6.24171 5.22975 1.42221 4.00111 2.66343 6.6227 4.48556 6.33685 0.93953 
6.77461 1.93845 3.71664 4.30181 3.85466 0.828653 4.48065 1.58924 2.97102 
3.43784 4.03094 0.6511 5.51242 1.89475 3.39278 2.49149 3.09288 0.584025 
6.44638 2.25704 3.38161 2.55171 2.50485 0.51158 6.24059 1.50513 3.32613 
2.32688 2.10087 0.570256 5.3471 1.98336 3.21797 2.0102 1.80259 0.505802 
6.57329 1.96476 2.73443 1.94999 1.58967 0.425499 6.88504 1.46225 2.47968 
1.47632 1.89146 0.455458 7.06161 0.454325 1.44058 2.12001 1.76764 0.383749 
4.96896 0.403641 1.07703 2.45054 2.26449 1.8924 4.34967 0.439865 1.01247 
3.80804 1.81283 1.96378 0.790809 0.574295 0.430649 0.41575 1.30311 3.26139 
6.33002 8.19981 6.14365 6.32109 5.15653 5.70297 4.80315 5.22367 5.80472 
4.71038 7.97857 4.82372 7.46411 4.2274 6.68423 3.27631 5.86338 7.03243 
6.51753 2.79643 5.10961 2.2916 3.91408 4.96849 5.69591 2.35031 6.53467 
2.60877 2.54243 4.06544 5.01686 0.6352 7.86009 2.3589 2.33372 2.98542 
5.00219 0.582678 7.77364 1.98923 2.45984 2.42976 3.8869 0.426651 5.77912 
1.33399 1.641 2.1389 2.82 1.8082 2.63872 0.650768 5.27286 1.51462 
2.17888 2.01004 1.91965 0.768398 6.60427 1.17767 1.51822 1.86443 1.77728 
0.880415 7.27633 1.40982 2.18364 1.51912 2.26836 0.712615 7.35094 1.30665 
1.33259 0.923731 1.48627 0.553194 7.81982 0.458405 0.7477 0.866852 0.867577 
1.47444 1.40223 0.380719 5.51203 0.439742 0.707343 2.11034 2.22451 0.438985 
4.68488 0.32279 0.858433 2.04249 1.94242 0.651317 3.12315 0.770757 0.694168 
0.54014 0.705811 0.758339 1.68408 2.99913 1.59554 1.28479 2.50708 0.64425 
2.10713 3.62634 5.18492 6.13304 5.96985 6.10355 5.32099 6.11273 4.73065 
5.68074 3.75535 5.29717 4.93662 5.85626 5.78639 5.75629 6.52617 5.69586 
6.93013 4.84981 3.71558 6.51678 6.71644 3.97271 5.71699 2.29808 2.80355 
5.57045 5.87041 3.45898 6.8563 2.92065 1.64778 3.20396 5.70392 1.58907 
6.17467 2.91238 1.77334 2.81031 5.36513 0.443808 5.76495 2.41973 1.16947 
2.09364 4.26289 0.823813 3.70715 1.34211 1.71393 1.93491 1.93975 1.87594 
1.78341 0.986448 3.57275 1.18935 6.11262 1.59135 0.96451 1.42195 3.15755 
1.74303 5.18008 1.51781 1.75954 1.49792 2.32525 1.4767 4.88603 1.02905 
1.38905 1.08073 2.57104 1.50849 4.94466 0.920228 0.805181 0.868429 0.755196 
1.24382 6.12579 0.728331 0.347064 0.78845 1.85318 0.483601 5.87098 0.760848 
0.643181 1.64706 2.34712 0.723174 5.82541 0.503177 0.635363 0.490284 0.726848 
2.74316 1.91313 0.767945 5.11457 0.903534 0.465764 0.422259 1.02394 2.58618 
1.88464 0.795107 3.86028 1.71676 1.26937 1.81888 5.57377 4.18272 4.83881 
5.57896 4.45121 4.91374 4.23952 5.1793 5.58926 5.64572 6.98565 6.27753 
5.34377 5.75218 5.99353 6.27526 2.21013 5.17698 5.13376 5.87815 5.49737 
2.85343 1.75867 6.76455 5.37652 4.34133 5.95542 3.14442 0.743558 3.15544 
7.07559 3.58014 6.62665 2.13137 1.21497 2.76314 6.50502 1.57852 5.69964 
1.7513 1.16643 2.70452 5.02475 1.95713 4.37694 1.80947 1.48353 1.03255 
4.32869 1.9923 5.5334 1.71127 1.80519 0.900769 2.89914 2.06788 3.90223 
1.89119 1.58416 0.828195 1.62629 2.81631 3.337 1.40595 1.71748 0.678448 
2.49282 1.9094 3.458 1.3343 0.996962 0.840999 2.90466 1.46014 4.18601 
1.29041 0.334996 0.743021 2.57219 0.861797 5.41837 0.883909 0.500272 1.50766 
3.71707 0.605769 5.41649 0.608774 0.58527 2.60757 3.24163 0.635764 5.94851 
3.11354 2.10636 0.56744 1.59684 2.24072 2.32896 1.22445 5.01966 2.00316 
1.72003 1.7034 3.59566 1.66804 4.72636 4.81254 4.56988 4.18312 4.84241 
4.18017 5.39971 4.8826 5.51135 4.96806 4.7542 4.95476 5.14567 5.5217 
2.5524 4.22682 4.27818 5.87713 4.45436 6.36023 2.49285 3.92357 1.45587 
4.05727 4.62825 4.77776 4.41719 3.39179 1.05089 3.67664 5.45889 2.87925 
5.49418 2.29379 1.18058 3.23202 6.50229 2.23364 5.18294 1.56601 0.956154 
3.11522 5.25877 2.18543 4.62173 1.51896 1.66765 1.46364 4.46835 2.22266 
4.63912 1.2186 2.3199 0.80665 3.51085 2.59611 3.1869 1.20593 1.62371 
0.679695 2.15699 2.60798 1.54314 1.17111 2.09837 0.828761 1.12488 1.96696 
2.98908 1.09517 1.30754 1.3328 1.96568 1.59531 3.2422 0.978252 0.392562 
1.43177 3.24988 1.15811 4.96735 1.05623 0.401128 1.87487 3.98079 0.589753 
4.20432 0.622864 0.504659 2.4339 3.46517 0.774874 5.02232 0.633926 2.53121 
1.07091 5.38626 2.19353 1.46158 1.62764 4.49789 2.71746 4.61573 3.48388 
5.83558 3.55638 5.94276 3.79652 4.89862 3.97359 4.10815 4.9664 3.5183 
5.29824 1.8065 3.61929 3.41655 5.31508 3.4156 6.70718 1.22587 3.4991 
4.59581 4.58966 4.243 3.95214 1.29208 4.01252 6.6977 2.97387 5.94495 
2.09583 1.05456 2.77102 1.40098 3.16484 6.66223 2.87801 5.62962 1.47437 
1.35909 3.47658 6.1728 2.67852 4.50018 2.37812 1.84895 4.21352 2.46518 
4.25516 2.89439 1.02847 2.47802 2.07849 3.4625 2.21217 0.975416 1.22312 
1.95786 2.53906 2.3214 1.10671 0.966963 1.74384 1.68932 0.535663 0.685113 
1.27442 1.83431 1.38906 2.46953 0.382594 0.367389 2.06898 2.39528 0.984086 
3.6362 1.00695 0.411561 2.46173 3.40562 0.677522 3.36462 0.987654 0.772125 
2.02554 2.8597 0.946054 4.97566 2.03651 1.53281 0.682667 1.84712 0.467589 
0.524214 1.15682 4.96934 2.92907 4.25834 2.7914 5.5385 2.2665 7.05663 
3.07325 4.4694 4.00247 4.04209 4.37798 2.57612 4.72479 1.83159 1.60999 
3.71412 5.04374 2.88775 6.97315 1.77743 2.15258 6.40842 4.33485 4.38543 
4.55423 1.84416 1.93576 1.22128 3.95141 6.90212 2.88656 7.03416 1.19616 
1.43316 1.01829 1.81959 4.9754 6.91773 1.59827 4.93849 1.82944 6.42669 
5.48721 1.88224 3.81416 2.57704 1.34216 4.09785 2.15269 3.449 2.26855 
1.23765 2.69489 1.99779 3.22825 1.82138 1.00935 1.18209 1.54988 2.69776 
0.777582 1.0264 1.39484 1.33097 1.34361 0.47847 1.45145 1.04195 1.23389 
1.50927 0.863102 0.406182 2.11107 1.06635 0.800593 2.23146 0.937284 0.409591 
2.66537 0.627323 2.56484 0.865844 1.33549 1.85474 2.71679 2.21979 2.624 
3.48516 0.809823 4.38894 2.1657 1.3169 0.663156 4.79543 3.72193 3.11464 
2.05067 4.1631 2.39521 6.91982 2.56916 5.75115 2.97664 4.35055 3.24332 
1.8194 3.32037 2.62423 2.29366 6.38326 3.23315 2.97131 7.0344 2.74455 
1.20062 6.67008 2.46138 6.62996 5.55375 2.41895 1.55517 7.03167 2.23265 
5.59639 1.99097 2.20252 2.4769 6.54932 1.93193 2.9519 2.23015 4.09004 
5.84235 1.56869 3.36392 2.67819 2.109 4.44415 2.06711 2.95568 2.59904 
0.998527 3.05724 2.12972 2.87852 1.85855 0.966538 2.2831 1.89252 2.18299 
1.51981 1.31479 1.80611 1.16516 1.55386 0.382194 1.61648 1.3723 1.06496 
1.11226 0.551803 1.92946 0.977506 1.51902 0.435356 2.30478 0.696643 0.792597 
2.19507 0.716188 0.416871 0.429378 1.47183 1.99588 1.21555 1.72098 1.71894 
2.4116 1.25715 1.01862 2.9774 2.60203 2.89892 2.05022 4.70507 2.10651 
6.10862 2.40362 7.88264 2.49761 6.31102 2.47794 3.31242 2.46447 5.79601 
2.26692 6.22759 6.7564 3.14156 2.05779 6.46504 1.93249 5.69804 6.76601 
2.98809 1.17706 7.01705 1.28177 4.05788 1.66542 2.46071 7.28865 0.792356 
2.78464 2.47466 1.27165 1.6003 1.53613 6.81817 0.707598 2.98712 2.70593 
2.38698 4.76184 2.4731 2.48401 2.24097 0.817993 4.01623 2.73856 2.33888 
2.84514 0.879204 1.98951 2.39774 1.25547 1.71537 1.21919 2.17732 1.63593 
1.09718 0.693425 1.69634 1.68911 0.464097 1.28993 0.664616 1.32705 1.56789 
2.42825 0.744518 0.401509 0.585104 1.52583 0.699427 0.533708 0.843139 2.08417 
1.46628 2.78173 1.67282 3.40315 2.1637 5.50662 2.48199 5.43855 2.58558 
2.88839 3.5138 5.26449 2.41069 5.00307 5.44707 4.3685 2.5505 5.4444 
2.00724 3.49579 4.54902 3.57246 1.13014 4.09126 1.53551 3.02093 2.64162 
2.29087 5.30695 1.03386 2.2879 2.75637 1.46478 1.66318 5.63183 0.845707 
1.92684 2.74197 5.08339 1.83756 1.75695 2.26018 0.465 4.33667 2.87571 
1.66242 2.24697 0.526322 3.36118 2.80883 1.76273 1.25375 2.52892 1.64499 
1.17059 0.587009 0.51759 0.910867 0.461003 1.24447 0.491345 0.591433 1.92719 
1.23482 0.472147 1.00115 2.8946 1.87291 3.85699 2.33618 4.33553 4.19568 
4.0797 2.98316 4.27998 3.91045 3.70786 3.00384 4.23585 3.66228 3.28561 
2.57458 4.26164 3.07493 2.99316 1.67801 4.84784 1.88911 4.20659 3.49753 
2.35684 5.50587 1.31191 3.44607 2.92148 2.3535 5.26462 0.976975 2.38451 
2.25509 5.06561 0.768907 0.992876 2.3055 4.45295 1.11094 0.956063 2.90805 
3.94065 3.48057 0.854007 1.18129 3.08611 1.82097 1.09644 0.329989 1.33663 
1.40848 0.434893 0.722174 2.1038 1.35438 0.622589 0.629317 2.64238 1.04283 
0.584363 0.793793 3.50005 1.61171 3.08319 3.37496 2.97181 2.82578 3.86499 
2.4283 4.1993 4.29212 2.45177 3.0672 2.11761 3.42381 3.26167 1.92836 
4.07517 1.81131 2.2333 1.99557 1.68641 4.88983 1.48163 1.48511 1.96945 
4.36157 1.20883 1.1547 1.31476 3.96558 1.02877 1.0164 1.37889 3.39588 
1.35284 1.31495 0.511602 2.18247 1.37554 0.779279 0.883079 0.96015 0.807394 
2.22163 2.33056 1.98201 1.53566 2.74328 2.38865 1.88395 3.46992 2.80136 
3.42031 1.5019 1.44831 3.52274 3.38508 1.36724 0.825569 1.20096 3.66744 
2.45266 1.12457 0.465 1.24489 3.27086 1.32895 0.910336 0.709818 0.713174 
2.367 0.967575 1.03031 0.749131 1.40183 0.887909 1.01129 1.03326 0.794494 
0.625462 1.62106 1.48599 3.15649 2.61773 1.73343 1.67577 4.41596 3.48191 
1.69632 1.68821 2.08724 1.15681 3.21411 4.20281 2.76108 4.32294 2.97256 
1.52701 2.25225 0.820289 
