# vtk DataFile Version 4.0
vtk output
ASCII
DATASET POLYDATA
POINTS 1425 float
-0.00562011 0.0119518 0 -0.00390238 0.0128019 0 -0.00469897 0.00534687 0 
0.00105999 0.0067317 0 -0.00296371 -0.000986975 0 0.00352073 5.22715e-005 0 
-0.0106114 0.0218056 0 0.00079096 0.0273939 0 -0.0138751 0.0124167 0 
0.00931136 0.019667 0 -0.0128496 0.00405142 0 0.0126337 0.00962195 0 
-0.0102727 -0.00425908 0 0.0146524 -0.000242979 0 -0.00108233 -0.0113489 0 
0.0127654 -0.0100057 0 -0.0195168 0.0252701 0 0.0272097 0.0408746 0 
-0.0230485 0.0127942 0 0.0310287 0.0272169 0 -0.0222396 0.00258371 0 
0.0317176 0.0135105 0 -0.0195085 -0.0072568 0 0.0325757 0.000807641 0 
-0.0150283 -0.0165838 0 0.0348329 -0.0114297 0 -0.013006 0.0519009 0 
0.0491797 0.0651674 0 -0.0297447 0.0292766 0 0.0562221 0.0503955 0 
-0.0335006 0.0131422 0 0.057628 0.0335855 0 -0.0330161 0.00050274 0 
0.057518 0.0172333 0 -0.03008 -0.0106144 0 0.0561657 0.00222922 0 
-0.026046 -0.0210722 0 0.0574513 -0.0110505 0 -0.0161869 -0.0310566 0 
0.0651348 -0.0246097 0 0.053603 -0.0367848 0 0.0623846 -0.033461 0 
-0.00557364 0.0800924 0 0.0532997 0.0884932 0 -0.0321515 0.0540117 0 
0.0710586 0.0733136 0 -0.0414685 0.0329395 0 0.075284 0.055536 0 
-0.0451554 0.0128513 0 0.0769816 0.0359639 0 -0.0450005 -0.00302375 0 
0.0786524 0.0177459 0 -0.0413345 -0.0147906 0 0.0789098 0.000363345 0 
-0.0372105 -0.0257093 0 0.078686 -0.015491 0 -0.0324157 -0.0346394 0 
0.0758373 -0.0288943 0 0.0343191 -0.0523928 0 0.0704657 -0.0398512 0 
-0.00058964 0.109545 0 0.05318 0.11601 0 -0.0319259 0.0831959 0 
0.0736321 0.0982822 0 -0.0521902 0.0533599 0 0.0850626 0.0797388 0 
-0.0546607 0.0356279 0 0.0910028 0.0574477 0 -0.0578609 0.01189 0 
0.0947497 0.0368326 0 -0.0570154 -0.00790192 0 0.0967535 0.0163096 0 
-0.0520516 -0.0194651 0 0.0962382 -0.00311767 0 -0.0459491 -0.0306946 0 
0.0934396 -0.021134 0 -0.0386122 -0.0406353 0 0.0881525 -0.0369352 0 
-0.00417027 -0.0617913 0 0.0801398 -0.0499407 0 0.00707946 0.14218 0 
0.0544483 0.147972 0 -0.0350158 0.113024 0 0.0724496 0.130325 0 
-0.0678087 0.0736613 0 0.0915839 0.109554 0 -0.0673791 0.0554199 0 
0.10268 0.0870107 0 -0.0683524 0.0370581 0 0.10992 0.0620688 0 
-0.071796 0.00657939 0 0.114462 0.0376627 0 -0.0675273 -0.0105572 0 
0.115986 0.0136523 0 -0.0621271 -0.0244087 0 0.114558 -0.00889047 0 
-0.0548963 -0.0373966 0 0.110055 -0.0298905 0 -0.0456804 -0.0492711 0 
0.102488 -0.0483586 0 -0.0265742 -0.0661561 0 0.0914317 -0.0638383 0 
0.0252256 0.176185 0 0.0529823 0.176755 0 -0.0345904 0.148603 0 
0.0698376 0.165841 0 -0.110152 -0.0681235 0 -0.107789 -0.0720893 0 
-0.0847522 0.0961074 0 0.0882825 0.146406 0 -0.150127 -0.0342453 0 
-0.13074 -0.0679566 0 -0.0886154 0.0719719 0 0.111398 0.122409 0 
-0.172459 -0.0301209 0 -0.15487 -0.0661102 0 -0.0907721 0.0484497 0 
0.123135 0.096127 0 -0.203621 -0.0231389 0 -0.188331 -0.052669 0 
-0.0894654 0.0252891 0 0.131652 0.0664721 0 -0.232695 -0.011522 0 
-0.211354 -0.0638882 0 -0.234281 -0.0111789 0 -0.296959 -0.0267105 0 
-0.0864496 0.00345712 0 0.136787 0.0376623 0 -0.261696 -0.0048981 0 
-0.235422 -0.0757086 0 -0.184615 -0.0249507 0 -0.280505 -0.0580466 0 
-0.0799985 -0.0139566 0 0.138115 0.00975833 0 -0.29022 -0.00644057 0 
-0.271206 -0.0641453 0 -0.132429 -0.0345149 0 -0.171724 -0.0522831 0 
-0.0737251 -0.0298969 0 0.135598 -0.017078 0 -0.126043 -0.0551613 0 
-0.143648 -0.0670692 0 -0.0656093 -0.0451869 0 0.129172 -0.0418415 0 
-0.108879 -0.069232 0 -0.113463 -0.0734313 0 -0.0545358 -0.0593701 0 
0.118981 -0.0634028 0 -0.0325785 -0.0795323 0 0.104752 -0.0812076 0 
-0.0586384 -0.00159653 0 -0.0430554 -0.0346428 0 -0.0708192 0.000314262 0 
-0.062153 -0.0243429 0 -0.0849955 0.000607546 0 -0.0794608 -0.0157858 0 
-0.104516 0.00814801 0 -0.0995758 -0.00658071 0 -0.0810428 -0.0485103 0 
-0.0698538 -0.0667509 0 0.00817217 0.196389 0 0.0488783 0.201823 0 
-0.122902 0.00977114 0 -0.107321 -0.0271967 0 -0.100329 -0.0431758 0 
-0.0785154 -0.0814644 0 -0.0909567 0.134272 0 0.0846997 0.188726 0 
-0.143282 0.0126236 0 -0.0924813 -0.0911769 0 -0.229658 0.111588 0 
-0.297818 0.112148 0 -0.108842 0.0941527 0 0.101496 0.165388 0 
-0.164516 0.0132725 0 -0.105333 -0.102744 0 -0.216073 0.0878913 0 
-0.318483 0.0853371 0 -0.109701 0.0697666 0 0.131337 0.136684 0 
-0.187583 0.0162085 0 -0.125473 -0.110338 0 -0.222872 0.0576334 0 
-0.333404 0.0504337 0 -0.109638 0.0443651 0 0.145995 0.106259 0 
-0.2357 0.114748 0 -0.222384 0.0587647 0 -0.216658 0.0369165 0 
-0.149155 -0.122384 0 -0.213005 0.0306948 0 -0.349939 0.00863242 0 
-0.106878 0.0211784 0 0.156862 0.0706584 0 -0.259239 0.119104 0 
-0.169263 -0.140508 0 -0.158975 0.0130449 0 -0.355316 -0.0362737 0 
-0.102451 -0.000132562 0 0.162602 0.0361761 0 -0.282755 0.118639 0 
-0.194564 -0.153951 0 -0.0894686 0.00276581 0 -0.351742 -0.0814967 0 
-0.0942429 -0.0189504 0 0.16362 0.00336032 0 -0.307422 0.102996 0 
-0.236928 -0.147114 0 -0.0537545 -0.00663306 0 -0.0836581 -0.0152219 0 
-0.104638 -0.0225962 0 -0.318004 -0.11702 0 -0.0869209 -0.0356045 0 
0.159995 -0.027738 0 -0.33965 0.0325951 0 -0.281042 -0.136315 0 
-0.0476894 -0.0175135 0 -0.062058 -0.0243711 0 -0.101904 -0.0420111 0 
-0.264452 -0.140057 0 -0.0787104 -0.0531433 0 0.151426 -0.0568284 0 
-0.358944 -0.0421452 0 -0.335089 -0.10441 0 -0.0413072 -0.0276635 0 
-0.0483324 -0.0322965 0 -0.0751069 -0.050898 0 -0.214019 -0.155151 0 
-0.0655263 -0.0701511 0 0.13806 -0.0820933 0 -0.0738836 -0.0732018 0 
-0.115519 -0.105185 0 -0.0413526 -0.0934322 0 0.120062 -0.102535 0 
-0.00258542 -0.116617 0 0.100954 -0.118095 0 -0.04578 0.00603502 0 
-0.0260013 -0.0392892 0 -0.0578114 0.0127563 0 -0.0294221 -0.0493622 0 
-0.0700753 0.0166852 0 -0.0348693 -0.0598048 0 -0.0901688 0.0336128 0 
-0.0433098 -0.0706145 0 -0.109916 0.0501444 0 -0.0531207 -0.0831903 0 
-0.0488715 0.209646 0 0.0439049 0.231312 0 -0.130156 0.0615322 0 
-0.0635675 -0.0976123 0 -0.120588 0.133343 0 0.0982879 0.210843 0 
-0.152635 0.0761562 0 -0.0773272 -0.111089 0 -0.187496 0.119961 0 
-0.319972 0.138258 0 -0.130295 0.0949704 0 0.121591 0.1863 0 
-0.177498 0.0958344 0 -0.0950492 -0.120279 0 -0.168284 0.0928079 0 
-0.357419 0.104917 0 -0.130412 0.0685105 0 0.15251 0.156326 0 
-0.209464 0.139868 0 -0.0891615 -0.162713 0 -0.142057 0.068089 0 
-0.392552 0.0620768 0 -0.128606 0.0426132 0 0.172591 0.11841 0 
-0.233318 0.149318 0 -0.107993 -0.177508 0 -0.0985129 0.0446037 0 
-0.429478 0.00884663 0 -0.124786 0.0186667 0 0.186435 0.0742529 0 
-0.260505 0.150591 0 -0.126423 -0.198554 0 -0.0842001 0.0282773 0 
-0.454478 -0.0555495 0 -0.119253 -0.00423902 0 0.192825 0.0330255 0 
-0.289493 0.14888 0 -0.137313 -0.228954 0 -0.0565719 0.0120986 0 
-0.427337 -0.106336 0 -0.111772 -0.0242894 0 0.193431 -0.00529487 0 
-0.321359 0.137271 0 -0.178549 -0.232777 0 -0.0390794 -0.00095873 0 
-0.394576 -0.154315 0 -0.100798 -0.0413973 0 0.188403 -0.04155 0 
-0.358037 0.104242 0 -0.210275 -0.246014 0 -0.0327586 -0.0115168 0 
-0.356994 -0.195959 0 -0.0935999 -0.0620517 0 0.177643 -0.0747408 0 
-0.395251 0.0581449 0 -0.288153 -0.21094 0 -0.0275514 -0.0216336 0 
-0.25997 -0.199538 0 -0.0821917 -0.0772232 0 0.16056 -0.104437 0 
-0.429888 -0.000128136 0 -0.342179 -0.203251 0 -0.0254615 -0.0327663 0 
-0.0851564 -0.11414 0 -0.0957029 -0.126414 0 -0.246145 -0.244142 0 
-0.0522628 -0.107914 0 0.137985 -0.128409 0 -0.0916424 -0.152912 0 
-0.161394 -0.225832 0 -0.0248667 -0.129079 0 0.114017 -0.142946 0 
-0.0209469 -0.00200883 0 -0.0151863 -0.0164542 0 -0.0331529 0.0159053 0 
-0.0152171 -0.0315941 0 -0.0437812 0.0225147 0 -0.0162334 -0.043829 0 
-0.0557636 0.0292923 0 -0.0185586 -0.056051 0 -0.0686093 0.0348739 0 
-0.0221093 -0.0691031 0 -0.0902715 0.0683086 0 -0.027329 -0.0832643 0 
-0.108778 0.0878654 0 -0.033968 -0.0990411 0 -0.102823 0.21079 0 
0.0294116 0.267971 0 -0.129055 0.111579 0 -0.0407237 -0.117217 0 
-0.198325 0.165189 0 -0.252806 0.185002 0 -0.147781 0.134681 0 
0.0761017 0.267133 0 -0.151183 0.124985 0 -0.0497321 -0.135143 0 
-0.16051 0.1323 0 -0.347973 0.171241 0 -0.153434 0.0949791 0 
0.146139 0.220537 0 -0.177779 0.150855 0 -0.0612979 -0.149556 0 
-0.112271 0.0944295 0 -0.385995 0.138816 0 -0.151867 0.0672222 0 
0.181198 0.181868 0 -0.202832 0.167855 0 -0.0613708 -0.185021 0 
-0.0941332 0.0713534 0 -0.425835 0.0955646 0 -0.148699 0.040858 0 
0.205004 0.134361 0 -0.229404 0.179875 0 -0.0770034 -0.205404 0 
-0.0825614 0.0527252 0 -0.509643 0.00591541 0 -0.143951 0.0155561 0 
0.221653 0.0764216 0 -0.260419 0.185756 0 -0.0932968 -0.227858 0 
-0.0737089 0.0379037 0 -0.544307 -0.0701156 0 -0.137502 -0.00992206 0 
0.22819 0.0283491 0 -0.294582 0.18645 0 -0.114961 -0.249892 0 
-0.0299443 0.0132285 0 -0.512353 -0.133605 0 -0.1307 -0.0333849 0 
0.228485 -0.0150922 0 -0.332812 0.178859 0 -0.140794 -0.272054 0 
-0.0228002 0.00251217 0 -0.465349 -0.190705 0 -0.118843 -0.051719 0 
0.222105 -0.0573938 0 -0.386056 0.138759 0 -0.162328 -0.299019 0 
-0.0186869 -0.0069751 0 -0.399902 -0.234315 0 -0.109377 -0.0695765 0 
0.208656 -0.0961492 0 -0.427588 0.0936464 0 -0.228208 -0.302922 0 
-0.0151951 -0.0166617 0 -0.350013 -0.273964 0 -0.0925247 -0.0911191 0 
0.187493 -0.130234 0 -0.464567 0.0544831 0 -0.284812 -0.305326 0 
-0.0152133 -0.0308869 0 -0.292619 -0.302915 0 -0.0652416 -0.122395 0 
0.158844 -0.157635 0 -0.501011 0.0177337 0 -0.411867 -0.228581 0 
-0.0202732 -0.0621461 0 -0.209771 -0.304431 0 -0.0404998 -0.143804 0 
0.12689 -0.172904 0 -0.537035 -0.0491245 0 -0.515621 -0.12855 0 
-0.0526626 -0.163792 0 -0.0802097 -0.210037 0 -0.160241 -0.296723 0 
-0.165034 -0.300351 0 -0.0218309 -0.158893 0 0.105264 -0.175123 0 
-0.0134573 0.0152903 0 -0.00544879 -0.0103586 0 -0.0205923 0.0226701 0 
-0.00527964 -0.0217468 0 -0.0293317 0.030534 0 -0.00515091 -0.0344989 0 
-0.0396127 0.0398218 0 -0.00534018 -0.0475372 0 -0.0521046 0.0537692 0 
-0.00639489 -0.0611093 0 -0.0677759 0.075389 0 -0.00820236 -0.0759539 0 
-0.0841897 0.0982336 0 -0.0108424 -0.092538 0 -0.101139 0.117603 0 
-0.0137927 -0.112057 0 -0.146566 0.209573 0 -0.018315 0.306481 0 
-0.119769 0.135331 0 -0.0159404 -0.134705 0 -0.179381 0.187597 0 
[...]
POINT_DATA 1425
SCALARS BIP float
LOOKUP_TABLE default
6.20334 5.08505 6.70985 4.00126 6.7684 3.8276 6.09713 5.35512 6.49623 
3.38251 7.15732 2.44286 7.50653 3.13575 7.21587 3.94959 5.60355 3.46463 
6.25447 3.25509 6.59435 2.61853 6.81917 1.42099 7.07252 2.13031 4.44113 
2.97041 5.19914 2.40184 5.21062 2.55961 5.85041 1.58202 5.91192 1.506 
5.94231 1.13293 5.05837 1.42515 2.49445 2.12855 5.39335 2.63342 3.7588 
1.68669 5.23585 1.50026 4.84823 1.48982 4.76699 1.27463 4.54001 1.32605 
4.16873 1.48775 4.00378 1.84889 3.95354 2.16204 6.38249 3.20175 5.64061 
2.52198 5.84112 2.29098 5.60195 1.5971 5.03203 1.75936 3.32262 1.6529 
2.8721 1.52778 2.78844 1.83258 3.16383 2.1104 4.67546 2.59155 5.01339 
3.59241 5.84542 2.90521 7.91124 3.44494 6.98092 2.33842 6.36907 2.23925 
5.01303 2.28105 3.34857 2.1637 2.55503 2.18037 2.88312 2.24613 3.022 
2.3253 3.50133 2.90182 5.89932 5.14466 4.51082 4.12891 2.50486 2.32393 
7.48105 3.73566 1.55558 1.77701 6.21785 3.4527 1.51 1.57232 5.93006 
2.58832 1.65875 1.59881 5.56644 2.62025 1.68737 1.57021 1.69065 2.48185 
5.36306 2.49444 1.77399 2.31009 1.51903 2.34041 3.0262 2.52801 1.95369 
2.13244 3.14674 1.75543 2.99852 2.36966 2.59048 1.74194 2.81362 2.34211 
2.4948 1.96245 2.54121 2.51908 2.31174 3.10074 3.92707 2.92377 4.75919 
2.54745 5.17792 2.78001 5.07821 5.29446 3.09127 2.15877 3.93234 5.74951 
4.66204 3.31933 3.09293 1.70302 7.13444 4.2818 3.44908 1.44005 1.96181 
1.85836 4.54545 3.96548 2.82743 0.866346 1.23398 2.01231 4.36052 4.11034 
2.07447 0.435184 1.2016 2.16975 4.65731 2.6061 1.8232 1.24138 1.09394 
0.836377 1.13384 2.30058 5.00784 2.93482 1.59142 0.870986 2.99351 2.73481 
4.76257 2.89295 1.45882 0.617228 5.12522 2.16234 3.13261 3.06199 2.04119 
0.661409 3.62439 2.99989 3.43602 2.40778 3.68114 2.51179 2.23666 1.59509 
3.55914 2.55205 3.04591 1.1284 3.07297 2.44771 2.73598 2.44705 3.42483 
2.83976 2.99706 0.441096 2.02146 2.62111 1.92711 0.448545 1.67336 3.4006 
4.38722 3.66487 4.93434 4.72821 5.05874 3.87529 5.74937 2.65068 5.59683 
1.94278 4.59774 1.20138 3.42274 5.54349 3.74 1.39217 6.37776 3.43732 
3.10018 1.25097 3.71187 1.77612 4.15818 4.32761 2.74153 0.898164 3.09134 
1.91478 3.72316 4.03091 3.2796 0.563372 3.29992 2.13363 3.99057 2.6874 
2.03545 0.500093 5.41707 2.74541 4.77186 2.95317 1.9858 0.401235 5.80065 
2.28561 3.78764 2.73206 2.0335 0.460403 5.01314 2.40504 3.63676 2.66571 
1.77226 0.402338 5.39618 2.35705 3.02818 2.27881 1.92018 0.455151 5.63351 
1.05213 2.80891 2.04058 2.15138 0.791974 5.78544 0.381625 1.81788 2.49342 
2.83433 1.19791 5.35401 1.13887 0.843202 0.591128 1.07247 3.32312 0.661486 
0.390201 2.32533 3.61568 6.74127 7.08266 5.21314 4.86077 5.21486 4.96716 
5.49588 4.57372 6.23945 3.66606 6.31865 2.58703 4.48095 1.68163 5.0988 
6.24171 5.22975 1.42221 4.00111 2.66343 6.6227 4.48556 6.33685 0.93953 
6.77461 1.93845 3.71664 4.30181 3.85466 0.828653 4.48065 1.58924 2.97102 
3.43784 4.03094 0.6511 5.51242 1.89475 3.39278 2.49149 3.09288 0.584025 
6.44638 2.25704 3.38161 2.55171 2.50485 0.51158 6.24059 1.50513 3.32613 
2.32688 2.10087 0.570256 5.3471 1.98336 3.21797 2.0102 1.80259 0.505802 
6.57329 1.96476 2.73443 1.94999 1.58967 0.425499 6.88504 1.46225 2.47968 
1.47632 1.89146 0.455458 7.06161 0.454325 1.44058 2.12001 1.76764 0.383749 
4.96896 0.403641 1.07703 2.45054 2.26449 1.8924 4.34967 0.439865 1.01247 
3.80804 1.81283 1.96378 0.790809 0.574295 0.430649 0.41575 1.30311 3.26139 
6.33002 8.19981 6.14365 6.32109 5.15653 5.70297 4.80315 5.22367 5.80472 
4.71038 7.97857 4.82372 7.46411 4.2274 6.68423 3.27631 5.86338 7.03243 
6.51753 2.79643 5.10961 2.2916 3.91408 4.96849 5.69591 2.35031 6.53467 
2.60877 2.54243 4.06544 5.01686 0.6352 7.86009 2.3589 2.33372 2.98542 
5.00219 0.582678 7.77364 1.98923 2.45984 2.42976 3.8869 0.426651 5.77912 
1.33399 1.641 2.1389 2.82 1.8082 2.63872 0.650768 5.27286 1.51462 
2.17888 2.01004 1.91965 0.768398 6.60427 1.17767 1.51822 1.86443 1.77728 
0.880415 7.27633 1.40982 2.18364 1.51912 2.26836 0.712615 7.35094 1.30665 
1.33259 0.923731 1.48627 0.553194 7.81982 0.458405 0.7477 0.866852 0.867577 
1.47444 1.40223 0.380719 5.51203 0.439742 0.707343 2.11034 2.22451 0.438985 
4.68488 0.32279 0.858433 2.04249 1.94242 0.651317 3.12315 0.770757 0.694168 
0.54014 0.705811 0.758339 1.68408 2.99913 1.59554 1.28479 2.50708 0.64425 
2.10713 3.62634 5.18492 6.13304 5.96985 6.10355 5.32099 6.11273 4.73065 
5.68074 3.75535 5.29717 4.93662 5.85626 5.78639 5.75629 6.52617 5.69586 
6.93013 4.84981 3.71558 6.51678 6.71644 3.97271 5.71699 2.29808 2.80355 
5.57045 5.87041 3.45898 6.8563 2.92065 1.64778 3.20396 5.70392 1.58907 
6.17467 2.91238 1.77334 2.81031 5.36513 0.443808 5.76495 2.41973 1.16947 
2.09364 4.26289 0.823813 3.70715 1.34211 1.71393 1.93491 1.93975 1.87594 
1.78341 0.986448 3.57275 1.18935 6.11262 1.59135 0.96451 1.42195 3.15755 
1.74303 5.18008 1.51781 1.75954 1.49792 2.32525 1.4767 4.88603 1.02905 
1.38905 1.08073 2.57104 1.50849 4.94466 0.920228 0.805181 0.868429 0.755196 
1.24382 6.12579 0.728331 0.347064 0.78845 1.85318 0.483601 5.87098 0.760848 
0.643181 1.64706 2.34712 0.723174 5.82541 0.503177 0.635363 0.490284 0.726848 
2.74316 1.91313 0.767945 5.11457 0.903534 0.465764 0.422259 1.02394 2.58618 
1.88464 0.795107 3.86028 1.71676 1.26937 1.81888 5.57377 4.18272 4.83881 
5.57896 4.45121 4.91374 4.23952 5.1793 5.58926 5.64572 6.98565 6.27753 
5.34377 5.75218 5.99353 6.27526 2.21013 5.17698 5.13376 5.87815 5.49737 
2.85343 1.75867 6.76455 5.37652 4.34133 5.95542 3.14442 0.743558 3.15544 
7.07559 3.58014 6.62665 2.13137 1.21497 2.76314 6.50502 1.57852 5.69964 
1.7513 1.16643 2.70452 5.02475 1.95713 4.37694 1.80947 1.48353 1.03255 
4.32869 1.9923 5.5334 1.71127 1.80519 0.900769 2.89914 2.06788 3.90223 
1.89119 1.58416 0.828195 1.62629 2.81631 3.337 1.40595 1.71748 0.678448 
2.49282 1.9094 3.458 1.3343 0.996962 0.840999 2.90466 1.46014 4.18601 
1.29041 0.334996 0.743021 2.57219 0.861797 5.41837 0.883909 0.500272 1.50766 
3.71707 0.605769 5.41649 0.608774 0.58527 2.60757 3.24163 0.635764 5.94851 
3.11354 2.10636 0.56744 1.59684 2.24072 2.32896 1.22445 5.01966 2.00316 
1.72003 1.7034 3.59566 1.66804 4.72636 4.81254 4.56988 4.18312 4.84241 
4.18017 5.39971 4.8826 5.51135 4.96806 4.7542 4.95476 5.14567 5.5217 
2.5524 4.22682 4.27818 5.87713 4.45436 6.36023 2.49285 3.92357 1.45587 
4.05727 4.62825 4.77776 4.41719 3.39179 1.05089 3.67664 5.45889 2.87925 
5.49418 2.29379 1.18058 3.23202 6.50229 2.23364 5.18294 1.56601 0.956154 
3.11522 5.25877 2.18543 4.62173 1.51896 1.66765 1.46364 4.46835 2.22266 
4.63912 1.2186 2.3199 0.80665 3.51085 2.59611 3.1869 1.20593 1.62371 
0.679695 2.15699 2.60798 1.54314 1.17111 2.09837 0.828761 1.12488 1.96696 
2.98908 1.09517 1.30754 1.3328 1.96568 1.59531 3.2422 0.978252 0.392562 
1.43177 3.24988 1.15811 4.96735 1.05623 0.401128 1.87487 3.98079 0.589753 
4.20432 0.622864 0.504659 2.4339 3.46517 0.774874 5.02232 0.633926 2.53121 
1.07091 5.38626 2.19353 1.46158 1.62764 4.49789 2.71746 4.61573 3.48388 
5.83558 3.55638 5.94276 3.79652 4.89862 3.97359 4.10815 4.9664 3.5183 
5.29824 1.8065 3.61929 3.41655 5.31508 3.4156 6.70718 1.22587 3.4991 
4.59581 4.58966 4.243 3.95214 1.29208 4.01252 6.6977 2.97387 5.94495 
2.09583 1.05456 2.77102 1.40098 3.16484 6.66223 2.87801 5.62962 1.47437 
1.35909 3.47658 6.1728 2.67852 4.50018 2.37812 1.84895 4.21352 2.46518 
4.25516 2.89439 1.02847 2.47802 2.07849 3.4625 2.21217 0.975416 1.22312 
1.95786 2.53906 2.3214 1.10671 0.966963 1.74384 1.68932 0.535663 0.685113 
1.27442 1.83431 1.38906 2.46953 0.382594 0.367389 2.06898 2.39528 0.984086 
3.6362 1.00695 0.411561 2.46173 3.40562 0.677522 3.36462 0.987654 0.772125 
2.02554 2.8597 0.946054 4.97566 2.03651 1.53281 0.682667 1.84712 0.467589 
0.524214 1.15682 4.96934 2.92907 4.25834 2.7914 5.5385 2.2665 7.05663 
3.07325 4.4694 4.00247 4.04209 4.37798 2.57612 4.72479 1.83159 1.60999 
3.71412 5.04374 2.88775 6.97315 1.77743 2.15258 6.40842 4.33485 4.38543 
4.55423 1.84416 1.93576 1.22128 3.95141 6.90212 2.88656 7.03416 1.19616 
1.43316 1.01829 1.81959 4.9754 6.91773 1.59827 4.93849 1.82944 6.42669 
5.48721 1.88224 3.81416 2.57704 1.34216 4.09785 2.15269 3.449 2.26855 
1.23765 2.69489 1.99779 3.22825 1.82138 1.00935 1.18209 1.54988 2.69776 
0.777582 1.0264 1.39484 1.33097 1.34361 0.47847 1.45145 1.04195 1.23389 
1.50927 0.863102 0.406182 2.11107 1.06635 0.800593 2.23146 0.937284 0.409591 
2.66537 0.627323 2.56484 0.865844 1.33549 1.85474 2.71679 2.21979 2.624 
3.48516 0.809823 4.38894 2.1657 1.3169 0.663156 4.79543 3.72193 3.11464 
2.05067 4.1631 2.39521 6.91982 2.56916 5.75115 2.97664 4.35055 3.24332 
1.8194 3.32037 2.62423 2.29366 6.38326 3.23315 2.97131 7.0344 2.74455 
1.20062 6.67008 2.46138 6.62996 5.55375 2.41895 1.55517 7.03167 2.23265 
5.59639 1.99097 2.20252 2.4769 6.54932 1.93193 2.9519 2.23015 4.09004 
5.84235 1.56869 3.36392 2.67819 2.109 4.44415 2.06711 2.95568 2.59904 
0.998527 3.05724 2.12972 2.87852 1.85855 0.966538 2.2831 1.89252 2.18299 
1.51981 1.31479 1.80611 1.16516 1.55386 0.382194 1.61648 1.3723 1.06496 
1.11226 0.551803 1.92946 0.977506 1.51902 0.435356 2.30478 0.696643 0.792597 
2.19507 0.716188 0.416871 0.429378 1.47183 1.99588 1.21555 1.72098 1.71894 
2.4116 1.25715 1.01862 2.9774 2.60203 2.89892 2.05022 4.70507 2.10651 
6.10862 2.40362 7.88264 2.49761 6.31102 2.47794 3.31242 2.46447 5.79601 
2.26692 6.22759 6.7564 3.14156 2.05779 6.46504 1.93249 5.69804 6.76601 
2.98809 1.17706 7.01705 1.28177 4.05788 1.66542 2.46071 7.28865 0.792356 
2.78464 2.47466 1.27165 1.6003 1.53613 6.81817 0.707598 2.98712 2.70593 
2.38698 4.76184 2.4731 2.48401 2.24097 0.817993 4.01623 2.73856 2.33888 
2.84514 0.879204 1.98951 2.39774 1.25547 1.71537 1.21919 2.17732 1.63593 
1.09718 0.693425 1.69634 1.68911 0.464097 1.28993 0.664616 1.32705 1.56789 
2.42825 0.744518 0.401509 0.585104 1.52583 0.699427 0.533708 0.843139 2.08417 
1.46628 2.78173 1.67282 3.40315 2.1637 5.50662 2.48199 5.43855 2.58558 
2.88839 3.5138 5.26449 2.41069 5.00307 5.44707 4.3685 2.5505 5.4444 
2.00724 3.49579 4.54902 3.57246 1.13014 4.09126 1.53551 3.02093 2.64162 
2.29087 5.30695 1.03386 2.2879 2.75637 1.46478 1.66318 5.63183 0.845707 
1.92684 2.74197 5.08339 1.83756 1.75695 2.26018 0.465 4.33667 2.87571 
1.66242 2.24697 0.526322 3.36118 2.80883 1.76273 1.25375 2.52892 1.64499 
1.17059 0.587009 0.51759 0.910867 0.461003 1.24447 0.491345 0.591433 1.92719 
1.23482 0.472147 1.00115 2.8946 1.87291 3.85699 2.33618 4.33553 4.19568 
4.0797 2.98316 4.27998 3.91045 3.70786 3.00384 4.23585 3.66228 3.28561 
2.57458 4.26164 3.07493 2.99316 1.67801 4.84784 1.88911 4.20659 3.49753 
2.35684 5.50587 1.31191 3.44607 2.92148 2.3535 5.26462 0.976975 2.38451 
2.25509 5.06561 0.768907 0.992876 2.3055 4.45295 1.11094 0.956063 2.90805 
3.94065 3.48057 0.854007 1.18129 3.08611 1.82097 1.09644 0.329989 1.33663 
1.40848 0.434893 0.722174 2.1038 1.35438 0.622589 0.629317 2.64238 1.04283 
0.584363 0.793793 3.50005 1.61171 3.08319 3.37496 2.97181 2.82578 3.86499 
2.4283 4.1993 4.29212 2.45177 3.0672 2.11761 3.42381 3.26167 1.92836 
4.07517 1.81131 2.2333 1.99557 1.68641 4.88983 1.48163 1.48511 1.96945 
4.36157 1.20883 1.1547 1.31476 3.96558 1.02877 1.0164 1.37889 3.39588 
1.35284 1.31495 0.511602 2.18247 1.37554 0.779279 0.883079 0.96015 0.807394 
2.22163 2.33056 1.98201 1.53566 2.74328 2.38865 1.88395 3.46992 2.80136 
3.42031 1.5019 1.44831 3.52274 3.38508 1.36724 0.825569 1.20096 3.66744 
2.45266 1.12457 0.465 1.24489 3.27086 1.32895 0.910336 0.709818 0.713174 
2.367 0.967575 1.03031 0.749131 1.40183 0.887909 1.01129 1.03326 0.794494 
0.625462 1.62106 1.48599 3.15649 2.61773 1.73343 1.67577 4.41596 3.48191 
1.69632 1.68821 2.08724 1.15681 3.21411 4.20281 2.76108 4.32294 2.97256 
1.52701 2.25225 0.820289 
