# vtk DataFile Version 3.0
vtk output
ASCII
DATASET POLYDATA
POINTS 1425 float
3.79471e-19 -8.14846e-19 0 0.00171726 -0.000851491 0 0.000941034 0.00659579 0 
0.00670179 0.0052049 0 0.00269378 0.0129154 0 0.00918053 0.0118684 0 
-0.00502135 -0.00985374 0 0.00637588 -0.0154583 0 -0.00826446 -0.000463351 0 
0.0149218 -0.00774196 0 -0.0072166 0.0078931 0 0.0182714 0.0022917 0 
-0.00461877 0.0161865 0 0.0203111 0.0121382 0 0.0045906 0.0232505 0 
0.0184385 0.0218853 0 -0.0139445 -0.0133254 0 0.0327586 -0.0290337 0 
-0.0174499 -0.00084833 0 0.0366135 -0.0153683 0 -0.0166171 0.00935323 0 
0.0373355 -0.00165972 0 -0.0138642 0.0191763 0 0.0382172 0.0110292 0 
-0.00936708 0.0284789 0 0.0404866 0.0232355 0 -0.00749991 -0.0400173 0 
0.0546352 -0.0534909 0 -0.0241951 -0.017351 0 0.0617138 -0.0387067 0 
-0.0279186 -0.00121431 0 0.0631633 -0.0218702 0 -0.0274083 0.0114147 0 
0.0630906 -0.00550506 0 -0.0244504 0.0225144 0 0.0617668 0.00949954 0 
-0.0204001 0.0329471 0 0.0630648 0.0227526 0 -0.0105237 0.0429011 0 
0.0707381 0.0362384 0 0.0592304 0.0484337 0 0.0679943 0.0450776 0 
-0.000153355 -0.0683345 0 0.0586703 -0.0769392 0 -0.0266721 -0.0421526 0 
0.0764549 -0.0617824 0 -0.0359458 -0.0210459 0 0.080727 -0.0439693 0 
-0.039594 -0.000953494 0 0.0824726 -0.0243658 0 -0.0394115 0.0149068 0 
0.0841779 -0.00614342 0 -0.0357237 0.0266578 0 0.0844609 0.0112304 0 
-0.0315843 0.037552 0 0.0842517 0.0270618 0 -0.0267793 0.0464568 0 
0.0814146 0.0404494 0 0.0399658 0.0640553 0 0.0760545 0.0514017 0 
0.00472366 -0.0979665 0 0.0584458 -0.104615 0 -0.0265388 -0.0714658 0 
0.0789372 -0.0868824 0 -0.0467403 -0.0415485 0 0.0904104 -0.0683181 0 
-0.0491689 -0.0237802 0 0.0964049 -0.0459879 0 -0.052325 -3.58557e-05 0 
0.100194 -0.025355 0 -0.0514481 0.0197375 0 0.102232 -0.00483013 0 
-0.046462 0.03129 0 0.101744 0.0145909 0 -0.0403409 0.0425003 0 
0.0989658 0.032596 0 -0.0329896 0.0524175 0 0.093695 0.0483889 0 
0.00147697 0.0734869 0 0.0856979 0.0613968 0 0.0122586 -0.130849 0 
0.0595781 -0.136813 0 -0.0297414 -0.10148 0 0.0776313 -0.119116 0 
-0.0624493 -0.0619838 0 0.0968125 -0.0983221 0 -0.0619654 -0.0436713 0 
0.107962 -0.0757385 0 -0.0628938 -0.0252677 0 0.115258 -0.0507576 0 
-0.0662861 0.0052135 0 0.119847 -0.0263331 0 -0.0619846 0.0223465 0 
0.121408 -0.00231769 0 -0.0565606 0.0361848 0 0.120009 0.0202203 0 
-0.0493096 0.0491518 0 0.11553 0.0412124 0 -0.0400774 0.0609996 0 
0.107981 0.0596764 0 -0.0209556 0.0778263 0 0.0969448 0.0751648 0 
0.0302465 -0.165176 0 0.0579817 -0.165831 0 -0.0294625 -0.137326 0 
0.074868 -0.154891 0 -0.104752 0.0794901 0 -0.102385 0.0834494 0 
-0.0795034 -0.0846146 0 0.0933692 -0.135397 0 -0.144864 0.0454641 0 
-0.125416 0.0791933 0 -0.0832995 -0.0603832 0 0.116531 -0.111384 0 
-0.167293 0.0411631 0 -0.149642 0.0771784 0 -0.0853983 -0.0367955 0 
0.128332 -0.0850461 0 -0.198602 0.0339052 0 -0.183243 0.0635043 0 
-0.0840371 -0.0135889 0 0.136911 -0.0553453 0 -0.227826 0.022007 0 
-0.206385 0.074466 0 -0.229421 0.0216472 0 -0.29244 0.036443 0 
-0.080977 0.00826015 0 0.142096 -0.0265157 0 -0.256985 0.0150691 0 
-0.230587 0.0859985 0 -0.179505 0.0358946 0 -0.275901 0.067903 0 
-0.0744885 0.025682 0 0.143463 0.00139294 0 -0.285667 0.0162771 0 
-0.266553 0.0740891 0 -0.127094 0.0458674 0 -0.16656 0.0632671 0 
-0.0681892 0.0416088 0 0.140978 0.0282245 0 -0.12069 0.0664863 0 
-0.138374 0.0782185 0 -0.0600527 0.056874 0 0.134576 0.0529811 0 
-0.103475 0.0806005 0 -0.108081 0.0847514 0 -0.0489617 0.0710262 0 
0.124407 0.0745415 0 -0.0269914 0.0911167 0 0.1102 0.0923613 0 
-0.0530829 0.0134365 0 -0.0374407 0.0464404 0 -0.0652978 0.0114776 0 
-0.0565866 0.036119 0 -0.0795149 0.0111149 0 -0.0739479 0.0275099 0 
-0.0991068 0.00346632 0 -0.0941335 0.0182121 0 -0.0755318 0.0601196 0 
-0.0643266 0.0783184 0 0.0130976 -0.185543 0 0.0537592 -0.191118 0 
-0.117559 0.00172042 0 -0.101893 0.0387383 0 -0.0948777 0.0547075 0 
-0.0730329 0.0929151 0 -0.0858628 -0.123051 0 0.0896002 -0.178044 0 
-0.13802 -0.00128497 0 -0.0870567 0.102507 0 -0.224981 -0.1013 0 
-0.293486 -0.102615 0 -0.10365 -0.0827787 0 0.106474 -0.154601 0 
-0.159343 -0.00211038 0 -0.099972 0.113936 0 -0.211271 -0.0773658 0 
-0.314205 -0.0759567 0 -0.104438 -0.0582907 0 0.136362 -0.125891 0 
-0.182515 -0.00525615 0 -0.120197 0.121366 0 -0.218035 -0.0470854 0 
-0.329154 -0.0411596 0 -0.10431 -0.032815 0 0.151086 -0.0954097 0 
-0.231061 -0.104538 0 -0.217547 -0.0482142 0 -0.211755 -0.0262672 0 
-0.143996 0.133176 0 -0.208075 -0.0200011 0 -0.345747 0.000461365 0 
-0.101496 -0.00958004 0 0.162021 -0.0597622 0 -0.254726 -0.109164 0 
-0.164231 0.151025 0 -0.153778 -0.00183519 0 -0.351147 0.0452578 0 
-0.0970246 0.0117542 0 0.167814 -0.025259 0 -0.27836 -0.10896 0 
-0.189678 0.164168 0 -0.0840043 0.0089344 0 -0.347578 0.0904108 0 
-0.0887741 0.0305898 0 0.168873 0.00755882 0 -0.30312 -0.0935405 0 
-0.232225 0.157 0 -0.0481808 0.0184825 0 -0.0781582 0.0269263 0 
-0.0992025 0.0341661 0 -0.313684 0.126202 0 -0.0814244 0.0472352 0 
0.165278 0.0386493 0 -0.335416 -0.0233785 0 -0.276547 0.145815 0 
-0.0420908 0.0293567 0 -0.0564913 0.0361474 0 -0.0964579 0.0535382 0 
-0.259875 0.149712 0 -0.0731952 0.0647425 0 0.156734 0.0677316 0 
-0.3548 0.0510713 0 -0.330851 0.113445 0 -0.0356892 0.039491 0 
-0.0427296 0.0440901 0 -0.0695798 0.0625229 0 -0.209226 0.165193 0 
-0.0599921 0.0817154 0 0.143392 0.0929986 0 -0.0683757 0.0847187 0 
-0.110197 0.116306 0 -0.0358085 0.104913 0 0.12542 0.113463 0 
0.0029367 0.127947 0 0.106333 0.129047 0 -0.040207 0.00585717 0 
-0.020355 0.0510947 0 -0.0522769 -0.00090179 0 -0.023788 0.0611181 0 
-0.0645779 -0.00488214 0 -0.0292552 0.0715005 0 -0.0847594 -0.0219261 0 
-0.0377261 0.0822357 0 -0.104603 -0.0386093 0 -0.0475782 0.0947137 0 
-0.0440462 -0.198954 0 0.0486381 -0.220892 0 -0.124938 -0.0501672 0 
-0.0580777 0.109012 0 -0.115567 -0.122274 0 0.103057 -0.200435 0 
-0.147535 -0.065012 0 -0.071903 0.122348 0 -0.182661 -0.109314 0 
-0.315828 -0.129109 0 -0.125171 -0.0837393 0 0.126429 -0.17581 0 
-0.172549 -0.0849791 0 -0.0896974 0.131398 0 -0.16329 -0.0818601 0 
-0.353406 -0.0960929 0 -0.125212 -0.0571698 0 0.157393 -0.14583 0 
-0.204785 -0.129537 0 -0.0839258 0.173509 0 -0.136898 -0.0568336 0 
-0.388676 -0.0536007 0 -0.123339 -0.0311903 0 0.177547 -0.107855 0 
-0.228776 -0.139275 0 -0.102863 0.188091 0 -0.0931521 -0.032985 0 
-0.425789 -0.000829704 0 -0.119462 -0.00718923 0 0.191467 -0.0636467 0 
-0.256093 -0.140835 0 -0.12143 0.208849 0 -0.0787627 -0.0165513 0 
-0.450954 0.0631499 0 -0.113881 0.0157466 0 0.197912 -0.0223999 0 
-0.28522 -0.139433 0 -0.132484 0.238888 0 -0.0510335 -0.000239585 0 
-0.423679 0.114166 0 -0.106361 0.0358105 0 0.198557 0.0159168 0 
-0.31722 -0.128134 0 -0.173879 0.242421 0 -0.0334809 0.0128606 0 
-0.390789 0.162358 0 -0.0953478 0.0529329 0 0.193558 0.0521586 0 
-0.354026 -0.0954233 0 -0.205789 0.255295 0 -0.0271332 0.0234101 0 
-0.35308 0.204207 0 -0.0881379 0.0735386 0 0.182821 0.0853383 0 
-0.391388 -0.0496983 0 -0.283902 0.219836 0 -0.0219079 0.0335049 0 
-0.255536 0.208808 0 -0.0767131 0.0886834 0 0.165763 0.115039 0 
-0.426198 0.0081381 0 -0.338201 0.211618 0 -0.0198124 0.0445993 0 
-0.0797607 0.125347 0 -0.0903694 0.137484 0 -0.241808 0.253145 0 
-0.0467735 0.119271 0 0.143218 0.139041 0 -0.0863791 0.163784 0 
-0.156631 0.235657 0 -0.0193984 0.140311 0 0.119285 0.153636 0 
-0.0153135 0.0139389 0 -0.00952539 0.0283497 0 -0.0275763 -0.00397631 0 
-0.00955276 0.0434366 0 -0.0382378 -0.0106151 0 -0.010576 0.0556192 0 
-0.0502591 -0.0174389 0 -0.0129159 0.0677808 0 -0.0631462 -0.0230808 0 
-0.0164894 0.0807594 0 -0.0849492 -0.0567142 0 -0.0217418 0.0948303 0 
-0.103566 -0.0764601 0 -0.0284254 0.110494 0 -0.0980942 -0.200281 0 
0.0339538 -0.257922 0 -0.123981 -0.100428 0 -0.0352396 0.128527 0 
-0.193692 -0.154925 0 -0.248479 -0.175395 0 -0.142849 -0.123803 0 
0.0806092 -0.257208 0 -0.146229 -0.11407 0 -0.0443175 0.146293 0 
-0.155614 -0.121501 0 -0.344079 -0.162611 0 -0.14839 -0.0839198 0 
0.150752 -0.210516 0 -0.173013 -0.140317 0 -0.0559529 0.160558 0 
-0.107089 -0.0830777 0 -0.382228 -0.1305 0 -0.146742 -0.0560411 0 
0.185879 -0.171795 0 -0.198227 -0.157651 0 -0.0561615 0.195695 0 
-0.0888299 -0.0597917 0 -0.42222 -0.0876231 0 -0.143504 -0.0295868 0 
0.209778 -0.124197 0 -0.224955 -0.170002 0 -0.0719113 0.215834 0 
-0.0771765 -0.0410389 0 -0.506484 0.000955808 0 -0.138696 -0.00422299 0 
0.226522 -0.0661829 0 -0.25613 -0.176232 0 -0.0883422 0.238 0 
-0.0682651 -0.0261392 0 -0.541396 0.0763992 0 -0.132195 0.0212898 0 
0.233115 -0.0180929 0 -0.290459 -0.177295 0 -0.110165 0.259711 0 
-0.0243567 -0.00129339 0 -0.509293 0.140155 0 -0.125358 0.0447531 0 
0.233443 0.0253347 0 -0.32886 -0.170093 0 -0.13618 0.281505 0 
-0.0171784 0.00942406 0 -0.46209 0.197622 0 -0.113461 0.0631054 0 
0.227088 0.067613 0 -0.382289 -0.130443 0 -0.157918 0.308049 0 
-0.0130417 0.0188957 0 -0.396357 0.241774 0 -0.103975 0.0809403 0 
0.213661 0.106352 0 -0.42398 -0.0857236 0 -0.224058 0.31147 0 
-0.00953412 0.0285565 0 -0.346322 0.281667 0 -0.0871001 0.10245 0 
0.192525 0.140447 0 -0.461143 -0.0469957 0 -0.280923 0.313376 0 
-0.00954881 0.0427321 0 -0.288755 0.310918 0 -0.0598186 0.13361 0 
0.163914 0.167897 0 -0.4978 -0.0107386 0 -0.408375 0.235936 0 
-0.0146405 0.0738427 0 -0.205555 0.313097 0 -0.0350998 0.154897 0 
0.132017 0.18327 0 -0.534063 0.055552 0 -0.512576 0.135074 0 
-0.047354 0.174686 0 -0.0751448 0.220409 0 -0.155812 0.305791 0 
-0.16064 0.30935 0 -0.0164651 0.169869 0 0.110443 0.1856 0 
-0.00785359 -0.00333608 0 0.0002194 0.0222675 0 -0.0150146 -0.0107239 0 
0.000395348 0.0336214 0 -0.0237847 -0.0186096 0 0.000522676 0.046326 0 
-0.0341046 -0.0279371 0 0.000324034 0.0593067 0 -0.0466557 -0.0419588 0 
-0.000747927 0.0728101 0 -0.0624218 -0.063719 0 -0.00258172 0.0875698 0 
-0.0789468 -0.08675 0 -0.00525927 0.104047 0 -0.0960064 -0.10632 0 
-0.00826301 0.123427 0 -0.141943 -0.199288 0 -0.0139935 -0.296855 0 
-0.114753 -0.124271 0 -0.0104829 0.145894 0 -0.174767 -0.177351 0 
[...]
POINT_DATA 1425
SCALARS BIP float
LOOKUP_TABLE default
6.20334 5.08505 6.70985 4.00126 6.7684 3.8276 6.09713 5.35512 6.49623 
3.38251 7.15732 2.44286 7.50653 3.13575 7.21587 3.94959 5.60355 3.46463 
6.25447 3.25509 6.59435 2.61853 6.81917 1.42099 7.07252 2.13031 4.44113 
2.97041 5.19914 2.40184 5.21062 2.55961 5.85041 1.58202 5.91192 1.506 
5.94231 1.13293 5.05837 1.42515 2.49445 2.12855 5.39335 2.63342 3.7588 
1.68669 5.23585 1.50026 4.84823 1.48982 4.76699 1.27463 4.54001 1.32605 
4.16873 1.48775 4.00378 1.84889 3.95354 2.16204 6.38249 3.20175 5.64061 
2.52198 5.84112 2.29098 5.60195 1.5971 5.03203 1.75936 3.32262 1.6529 
2.8721 1.52778 2.78844 1.83258 3.16383 2.1104 4.67546 2.59155 5.01339 
3.59241 5.84542 2.90521 7.91124 3.44494 6.98092 2.33842 6.36907 2.23925 
5.01303 2.28105 3.34857 2.1637 2.55503 2.18037 2.88312 2.24613 3.022 
2.3253 3.50133 2.90182 5.89932 5.14466 4.51082 4.12891 2.50486 2.32393 
7.48105 3.73566 1.55558 1.77701 6.21785 3.4527 1.51 1.57232 5.93006 
2.58832 1.65875 1.59881 5.56644 2.62025 1.68737 1.57021 1.69065 2.48185 
5.36306 2.49444 1.77399 2.31009 1.51903 2.34041 3.0262 2.52801 1.95369 
2.13244 3.14674 1.75543 2.99852 2.36966 2.59048 1.74194 2.81362 2.34211 
2.4948 1.96245 2.54121 2.51908 2.31174 3.10074 3.92707 2.92377 4.75919 
2.54745 5.17792 2.78001 5.07821 5.29446 3.09127 2.15877 3.93234 5.74951 
4.66204 3.31933 3.09293 1.70302 7.13444 4.2818 3.44908 1.44005 1.96181 
1.85836 4.54545 3.96548 2.82743 0.866346 1.23398 2.01231 4.36052 4.11034 
2.07447 0.435184 1.2016 2.16975 4.65731 2.6061 1.8232 1.24138 1.09394 
0.836377 1.13384 2.30058 5.00784 2.93482 1.59142 0.870986 2.99351 2.73481 
4.76257 2.89295 1.45882 0.617228 5.12522 2.16234 3.13261 3.06199 2.04119 
0.661409 3.62439 2.99989 3.43602 2.40778 3.68114 2.51179 2.23666 1.59509 
3.55914 2.55205 3.04591 1.1284 3.07297 2.44771 2.73598 2.44705 3.42483 
2.83976 2.99706 0.441096 2.02146 2.62111 1.92711 0.448545 1.67336 3.4006 
4.38722 3.66487 4.93434 4.72821 5.05874 3.87529 5.74937 2.65068 5.59683 
1.94278 4.59774 1.20138 3.42274 5.54349 3.74 1.39217 6.37776 3.43732 
3.10018 1.25097 3.71187 1.77612 4.15818 4.32761 2.74153 0.898164 3.09134 
1.91478 3.72316 4.03091 3.2796 0.563372 3.29992 2.13363 3.99057 2.6874 
2.03545 0.500093 5.41707 2.74541 4.77186 2.95317 1.9858 0.401235 5.80065 
2.28561 3.78764 2.73206 2.0335 0.460403 5.01314 2.40504 3.63676 2.66571 
1.77226 0.402338 5.39618 2.35705 3.02818 2.27881 1.92018 0.455151 5.63351 
1.05213 2.80891 2.04058 2.15138 0.791974 5.78544 0.381625 1.81788 2.49342 
2.83433 1.19791 5.35401 1.13887 0.843202 0.591128 1.07247 3.32312 0.661486 
0.390201 2.32533 3.61568 6.74127 7.08266 5.21314 4.86077 5.21486 4.96716 
5.49588 4.57372 6.23945 3.66606 6.31865 2.58703 4.48095 1.68163 5.0988 
6.24171 5.22975 1.42221 4.00111 2.66343 6.6227 4.48556 6.33685 0.93953 
6.77461 1.93845 3.71664 4.30181 3.85466 0.828653 4.48065 1.58924 2.97102 
3.43784 4.03094 0.6511 5.51242 1.89475 3.39278 2.49149 3.09288 0.584025 
6.44638 2.25704 3.38161 2.55171 2.50485 0.51158 6.24059 1.50513 3.32613 
2.32688 2.10087 0.570256 5.3471 1.98336 3.21797 2.0102 1.80259 0.505802 
6.57329 1.96476 2.73443 1.94999 1.58967 0.425499 6.88504 1.46225 2.47968 
1.47632 1.89146 0.455458 7.06161 0.454325 1.44058 2.12001 1.76764 0.383749 
4.96896 0.403641 1.07703 2.45054 2.26449 1.8924 4.34967 0.439865 1.01247 
3.80804 1.81283 1.96378 0.790809 0.574295 0.430649 0.41575 1.30311 3.26139 
6.33002 8.19981 6.14365 6.32109 5.15653 5.70297 4.80315 5.22367 5.80472 
4.71038 7.97857 4.82372 7.46411 4.2274 6.68423 3.27631 5.86338 7.03243 
6.51753 2.79643 5.10961 2.2916 3.91408 4.96849 5.69591 2.35031 6.53467 
2.60877 2.54243 4.06544 5.01686 0.6352 7.86009 2.3589 2.33372 2.98542 
5.00219 0.582678 7.77364 1.98923 2.45984 2.42976 3.8869 0.426651 5.77912 
1.33399 1.641 2.1389 2.82 1.8082 2.63872 0.650768 5.27286 1.51462 
2.17888 2.01004 1.91965 0.768398 6.60427 1.17767 1.51822 1.86443 1.77728 
0.880415 7.27633 1.40982 2.18364 1.51912 2.26836 0.712615 7.35094 1.30665 
1.33259 0.923731 1.48627 0.553194 7.81982 0.458405 0.7477 0.866852 0.867577 
1.47444 1.40223 0.380719 5.51203 0.439742 0.707343 2.11034 2.22451 0.438985 
4.68488 0.32279 0.858433 2.04249 1.94242 0.651317 3.12315 0.770757 0.694168 
0.54014 0.705811 0.758339 1.68408 2.99913 1.59554 1.28479 2.50708 0.64425 
2.10713 3.62634 5.18492 6.13304 5.96985 6.10355 5.32099 6.11273 4.73065 
5.68074 3.75535 5.29717 4.93662 5.85626 5.78639 5.75629 6.52617 5.69586 
6.93013 4.84981 3.71558 6.51678 6.71644 3.97271 5.71699 2.29808 2.80355 
5.57045 5.87041 3.45898 6.8563 2.92065 1.64778 3.20396 5.70392 1.58907 
6.17467 2.91238 1.77334 2.81031 5.36513 0.443808 5.76495 2.41973 1.16947 
2.09364 4.26289 0.823813 3.70715 1.34211 1.71393 1.93491 1.93975 1.87594 
1.78341 0.986448 3.57275 1.18935 6.11262 1.59135 0.96451 1.42195 3.15755 
1.74303 5.18008 1.51781 1.75954 1.49792 2.32525 1.4767 4.88603 1.02905 
1.38905 1.08073 2.57104 1.50849 4.94466 0.920228 0.805181 0.868429 0.755196 
1.24382 6.12579 0.728331 0.347064 0.78845 1.85318 0.483601 5.87098 0.760848 
0.643181 1.64706 2.34712 0.723174 5.82541 0.503177 0.635363 0.490284 0.726848 
2.74316 1.91313 0.767945 5.11457 0.903534 0.465764 0.422259 1.02394 2.58618 
1.88464 0.795107 3.86028 1.71676 1.26937 1.81888 5.57377 4.18272 4.83881 
5.57896 4.45121 4.91374 4.23952 5.1793 5.58926 5.64572 6.98565 6.27753 
5.34377 5.75218 5.99353 6.27526 2.21013 5.17698 5.13376 5.87815 5.49737 
2.85343 1.75867 6.76455 5.37652 4.34133 5.95542 3.14442 0.743558 3.15544 
7.07559 3.58014 6.62665 2.13137 1.21497 2.76314 6.50502 1.57852 5.69964 
1.7513 1.16643 2.70452 5.02475 1.95713 4.37694 1.80947 1.48353 1.03255 
4.32869 1.9923 5.5334 1.71127 1.80519 0.900769 2.89914 2.06788 3.90223 
1.89119 1.58416 0.828195 1.62629 2.81631 3.337 1.40595 1.71748 0.678448 
2.49282 1.9094 3.458 1.3343 0.996962 0.840999 2.90466 1.46014 4.18601 
1.29041 0.334996 0.743021 2.57219 0.861797 5.41837 0.883909 0.500272 1.50766 
3.71707 0.605769 5.41649 0.608774 0.58527 2.60757 3.24163 0.635764 5.94851 
3.11354 2.10636 0.56744 1.59684 2.24072 2.32896 1.22445 5.01966 2.00316 
1.72003 1.7034 3.59566 1.66804 4.72636 4.81254 4.56988 4.18312 4.84241 
4.18017 5.39971 4.8826 5.51135 4.96806 4.7542 4.95476 5.14567 5.5217 
2.5524 4.22682 4.27818 5.87713 4.45436 6.36023 2.49285 3.92357 1.45587 
4.05727 4.62825 4.77776 4.41719 3.39179 1.05089 3.67664 5.45889 2.87925 
5.49418 2.29379 1.18058 3.23202 6.50229 2.23364 5.18294 1.56601 0.956154 
3.11522 5.25877 2.18543 4.62173 1.51896 1.66765 1.46364 4.46835 2.22266 
4.63912 1.2186 2.3199 0.80665 3.51085 2.59611 3.1869 1.20593 1.62371 
0.679695 2.15699 2.60798 1.54314 1.17111 2.09837 0.828761 1.12488 1.96696 
2.98908 1.09517 1.30754 1.3328 1.96568 1.59531 3.2422 0.978252 0.392562 
1.43177 3.24988 1.15811 4.96735 1.05623 0.401128 1.87487 3.98079 0.589753 
4.20432 0.622864 0.504659 2.4339 3.46517 0.774874 5.02232 0.633926 2.53121 
1.07091 5.38626 2.19353 1.46158 1.62764 4.49789 2.71746 4.61573 3.48388 
5.83558 3.55638 5.94276 3.79652 4.89862 3.97359 4.10815 4.9664 3.5183 
5.29824 1.8065 3.61929 3.41655 5.31508 3.4156 6.70718 1.22587 3.4991 
4.59581 4.58966 4.243 3.95214 1.29208 4.01252 6.6977 2.97387 5.94495 
2.09583 1.05456 2.77102 1.40098 3.16484 6.66223 2.87801 5.62962 1.47437 
1.35909 3.47658 6.1728 2.67852 4.50018 2.37812 1.84895 4.21352 2.46518 
4.25516 2.89439 1.02847 2.47802 2.07849 3.4625 2.21217 0.975416 1.22312 
1.95786 2.53906 2.3214 1.10671 0.966963 1.74384 1.68932 0.535663 0.685113 
1.27442 1.83431 1.38906 2.46953 0.382594 0.367389 2.06898 2.39528 0.984086 
3.6362 1.00695 0.411561 2.46173 3.40562 0.677522 3.36462 0.987654 0.772125 
2.02554 2.8597 0.946054 4.97566 2.03651 1.53281 0.682667 1.84712 0.467589 
0.524214 1.15682 4.96934 2.92907 4.25834 2.7914 5.5385 2.2665 7.05663 
3.07325 4.4694 4.00247 4.04209 4.37798 2.57612 4.72479 1.83159 1.60999 
3.71412 5.04374 2.88775 6.97315 1.77743 2.15258 6.40842 4.33485 4.38543 
4.55423 1.84416 1.93576 1.22128 3.95141 6.90212 2.88656 7.03416 1.19616 
1.43316 1.01829 1.81959 4.9754 6.91773 1.59827 4.93849 1.82944 6.42669 
5.48721 1.88224 3.81416 2.57704 1.34216 4.09785 2.15269 3.449 2.26855 
1.23765 2.69489 1.99779 3.22825 1.82138 1.00935 1.18209 1.54988 2.69776 
0.777582 1.0264 1.39484 1.33097 1.34361 0.47847 1.45145 1.04195 1.23389 
1.50927 0.863102 0.406182 2.11107 1.06635 0.800593 2.23146 0.937284 0.409591 
2.66537 0.627323 2.56484 0.865844 1.33549 1.85474 2.71679 2.21979 2.624 
3.48516 0.809823 4.38894 2.1657 1.3169 0.663156 4.79543 3.72193 3.11464 
2.05067 4.1631 2.39521 6.91982 2.56916 5.75115 2.97664 4.35055 3.24332 
1.8194 3.32037 2.62423 2.29366 6.38326 3.23315 2.97131 7.0344 2.74455 
1.20062 6.67008 2.46138 6.62996 5.55375 2.41895 1.55517 7.03167 2.23265 
5.59639 1.99097 2.20252 2.4769 6.54932 1.93193 2.9519 2.23015 4.09004 
5.84235 1.56869 3.36392 2.67819 2.109 4.44415 2.06711 2.95568 2.59904 
0.998527 3.05724 2.12972 2.87852 1.85855 0.966538 2.2831 1.89252 2.18299 
1.51981 1.31479 1.80611 1.16516 1.55386 0.382194 1.61648 1.3723 1.06496 
1.11226 0.551803 1.92946 0.977506 1.51902 0.435356 2.30478 0.696643 0.792597 
2.19507 0.716188 0.416871 0.429378 1.47183 1.99588 1.21555 1.72098 1.71894 
2.4116 1.25715 1.01862 2.9774 2.60203 2.89892 2.05022 4.70507 2.10651 
6.10862 2.40362 7.88264 2.49761 6.31102 2.47794 3.31242 2.46447 5.79601 
2.26692 6.22759 6.7564 3.14156 2.05779 6.46504 1.93249 5.69804 6.76601 
2.98809 1.17706 7.01705 1.28177 4.05788 1.66542 2.46071 7.28865 0.792356 
2.78464 2.47466 1.27165 1.6003 1.53613 6.81817 0.707598 2.98712 2.70593 
2.38698 4.76184 2.4731 2.48401 2.24097 0.817993 4.01623 2.73856 2.33888 
2.84514 0.879204 1.98951 2.39774 1.25547 1.71537 1.21919 2.17732 1.63593 
1.09718 0.693425 1.69634 1.68911 0.464097 1.28993 0.664616 1.32705 1.56789 
2.42825 0.744518 0.401509 0.585104 1.52583 0.699427 0.533708 0.843139 2.08417 
1.46628 2.78173 1.67282 3.40315 2.1637 5.50662 2.48199 5.43855 2.58558 
2.88839 3.5138 5.26449 2.41069 5.00307 5.44707 4.3685 2.5505 5.4444 
2.00724 3.49579 4.54902 3.57246 1.13014 4.09126 1.53551 3.02093 2.64162 
2.29087 5.30695 1.03386 2.2879 2.75637 1.46478 1.66318 5.63183 0.845707 
1.92684 2.74197 5.08339 1.83756 1.75695 2.26018 0.465 4.33667 2.87571 
1.66242 2.24697 0.526322 3.36118 2.80883 1.76273 1.25375 2.52892 1.64499 
1.17059 0.587009 0.51759 0.910867 0.461003 1.24447 0.491345 0.591433 1.92719 
1.23482 0.472147 1.00115 2.8946 1.87291 3.85699 2.33618 4.33553 4.19568 
4.0797 2.98316 4.27998 3.91045 3.70786 3.00384 4.23585 3.66228 3.28561 
2.57458 4.26164 3.07493 2.99316 1.67801 4.84784 1.88911 4.20659 3.49753 
2.35684 5.50587 1.31191 3.44607 2.92148 2.3535 5.26462 0.976975 2.38451 
2.25509 5.06561 0.768907 0.992876 2.3055 4.45295 1.11094 0.956063 2.90805 
3.94065 3.48057 0.854007 1.18129 3.08611 1.82097 1.09644 0.329989 1.33663 
1.40848 0.434893 0.722174 2.1038 1.35438 0.622589 0.629317 2.64238 1.04283 
0.584363 0.793793 3.50005 1.61171 3.08319 3.37496 2.97181 2.82578 3.86499 
2.4283 4.1993 4.29212 2.45177 3.0672 2.11761 3.42381 3.26167 1.92836 
4.07517 1.81131 2.2333 1.99557 1.68641 4.88983 1.48163 1.48511 1.96945 
4.36157 1.20883 1.1547 1.31476 3.96558 1.02877 1.0164 1.37889 3.39588 
1.35284 1.31495 0.511602 2.18247 1.37554 0.779279 0.883079 0.96015 0.807394 
2.22163 2.33056 1.98201 1.53566 2.74328 2.38865 1.88395 3.46992 2.80136 
3.42031 1.5019 1.44831 3.52274 3.38508 1.36724 0.825569 1.20096 3.66744 
2.45266 1.12457 0.465 1.24489 3.27086 1.32895 0.910336 0.709818 0.713174 
2.367 0.967575 1.03031 0.749131 1.40183 0.887909 1.01129 1.03326 0.794494 
0.625462 1.62106 1.48599 3.15649 2.61773 1.73343 1.67577 4.41596 3.48191 
1.69632 1.68821 2.08724 1.15681 3.21411 4.20281 2.76108 4.32294 2.97256 
1.52701 2.25225 0.820289 
