# vtk DataFile Version 3.0
vtk output
ASCII
DATASET POLYDATA
POINTS 1425 float
36.825 -93.7203 225.234 35.4082 -93.7203 225.234 37.4482 -97.8499 225.234 
33.7088 -97.8499 225.234 37.6541 -101.979 225.234 33.2024 -101.979 225.234 
36.8254 -89.5908 221.104 30.1962 -89.5908 221.104 40.2307 -93.7203 221.104 
28.0938 -93.7203 221.104 40.7671 -97.8499 221.104 28.3177 -97.8499 221.104 
40.9898 -101.979 221.104 28.5399 -101.979 221.104 37.3197 -106.109 221.104 
30.2642 -106.109 221.104 38.7269 -89.5908 216.975 19.1889 -89.5908 216.975 
42.5286 -93.7203 216.975 19.7244 -93.7203 216.975 43.6169 -97.8499 216.975 
21.2015 -97.8499 216.975 44.0273 -101.979 216.975 22.1601 -101.979 216.975 
43.7076 -106.109 216.975 22.1504 -106.109 216.975 30.7557 -85.4612 212.845 
10.5847 -85.4612 212.845 39.9591 -89.5908 212.845 10.0905 -89.5908 212.845 
44.4285 -93.7203 212.845 11.5875 -93.7203 212.845 46.4005 -97.8499 212.845 
13.1226 -97.8499 212.845 47.1295 -101.979 212.845 14.6409 -101.979 212.845 
47.401 -106.109 212.845 14.7139 -106.109 212.845 44.1609 -110.238 212.845 
11.3451 -110.238 212.845 17.3618 -114.368 212.845 12.706 -114.368 212.845 
24.9771 -81.3317 208.716 8.61328 -81.3317 208.716 35.3555 -85.4612 208.716 
4.53311 -85.4612 208.716 41.1282 -89.5908 208.716 6.05756 -89.5908 208.716 
46.2631 -93.7203 208.716 7.92562 -93.7203 208.716 49.5512 -97.8499 208.716 
8.66087 -97.8499 208.716 50.3347 -101.979 208.716 9.22481 -101.979 208.716 
50.9743 -106.109 208.716 9.29624 -106.109 208.716 50.9737 -110.238 208.716 
10.0577 -110.238 208.716 26.0493 -114.368 208.716 11.9553 -114.368 208.716 
21.0813 -77.2021 204.586 8.12428 -77.2021 204.586 30.8768 -81.3317 204.586 
4.66312 -81.3317 204.586 39.7043 -85.4612 204.586 3.71495 -85.4612 204.586 
42.2588 -89.5908 204.586 5.74064 -89.5908 204.586 48.1094 -93.7203 204.586 
6.37781 -93.7203 204.586 52.8933 -97.8499 204.586 6.86171 -97.8499 204.586 
52.6757 -101.979 204.586 7.55501 -101.979 204.586 52.2272 -106.109 204.586 
8.59808 -106.109 204.586 51.263 -110.238 204.586 10.1051 -110.238 204.586 
38.9145 -114.368 204.586 12.0394 -114.368 204.586 17.1944 -73.0726 200.457 
6.81041 -73.0726 200.457 28.1905 -77.2021 200.457 5.05805 -77.2021 200.457 
39.779 -81.3317 200.457 2.56821 -81.3317 200.457 40.7703 -85.4612 200.457 
2.7673 -85.4612 200.457 43.4009 -89.5908 200.457 4.23902 -89.5908 200.457 
50.7844 -93.7203 200.457 5.15984 -93.7203 200.457 53.0339 -97.8499 200.457 
6.12794 -97.8499 200.457 52.0191 -101.979 200.457 7.22923 -101.979 200.457 
51.723 -106.109 200.457 8.64202 -106.109 200.457 50.8835 -110.238 200.457 
10.4257 -110.238 200.457 45.153 -114.368 200.457 12.6495 -114.368 200.457 
11.818 -68.9431 196.327 5.22569 -68.9431 196.327 24.946 -73.0726 196.327 
4.65075 -73.0726 196.327 56.155 -105.729 183.938 56.155 -106.895 183.938 
39.9431 -77.2021 196.327 3.75562 -77.2021 196.327 56.155 -96.8569 179.809 
56.155 -103.431 179.809 42.9546 -81.3317 196.327 0.50553 -81.3317 196.327 
56.155 -93.8364 175.679 56.155 -100.856 175.679 46.0677 -85.4612 196.327 
1.48913 -85.4612 196.327 56.155 -92.5573 171.55 56.155 -97.2753 171.55 
48.9617 -89.5908 196.327 3.26234 -89.5908 196.327 56.155 -89.6885 167.42 
56.155 -97.3561 167.42 56.155 -89.5908 167.192 56.155 -89.5908 157.469 
51.4745 -93.7203 196.327 4.43089 -93.7203 196.327 56.155 -87.9669 163.291 
56.155 -97.5297 163.291 56.155 -93.7203 175.553 56.155 -93.7203 158.268 
52.2729 -97.8499 196.327 5.57686 -97.8499 196.327 56.155 -87.3727 159.161 
56.155 -94.703 159.161 56.155 -97.8499 183.545 56.155 -97.8499 174.164 
51.5599 -101.979 196.327 7.13101 -101.979 196.327 56.155 -101.979 182.415 
56.155 -101.979 177.667 51.5538 -106.109 196.327 8.9288 -106.109 196.327 
56.155 -106.109 184.091 56.155 -106.109 182.429 50.677 -110.238 196.327 
10.9632 -110.238 196.327 45.0655 -114.368 196.327 13.2887 -114.368 196.327 
52.0255 -95.7873 204.586 52.0255 -107.801 204.586 52.0255 -94.8743 200.457 
52.0255 -101.961 200.457 52.0255 -94.1951 196.327 52.0255 -98.2568 196.327 
52.0255 -92.0453 192.197 52.0255 -95.0541 192.197 52.0255 -105.015 192.197 
52.0255 -109.662 192.197 14.112 -68.9431 192.197 7.29715 -68.9431 192.197 
52.0255 -91.1717 188.068 52.0255 -98.502 188.068 52.0255 -102.319 188.068 
52.0255 -110.787 188.068 36.0728 -73.0726 192.197 2.14066 -73.0726 192.197 
52.0255 -90.0902 183.938 52.0255 -110.243 183.938 52.0255 -73.0726 172.62 
52.0255 -73.0726 160.728 43.4918 -77.2021 192.197 3.94757 -77.2021 192.197 
52.0255 -89.4037 179.809 52.0255 -110.255 179.809 52.0255 -77.2021 174.468 
52.0255 -77.2021 157.901 45.6033 -81.3317 192.197 -0.721243 -81.3317 192.197 
52.0255 -88.2394 175.679 52.0255 -107.275 175.679 52.0255 -81.3317 171.419 
52.0255 -81.3317 156.012 48.4562 -85.4612 192.197 0.733968 -85.4612 192.197 
52.0255 -72.6303 171.55 52.0255 -81.1793 171.55 52.0255 -84.4529 171.55 
52.0255 -106.833 171.55 52.0255 -85.4612 171.89 52.0255 -85.4612 153.463 
50.742 -89.5908 192.197 2.69328 -89.5908 192.197 52.0255 -72.0213 167.42 
52.0255 -107.488 167.42 52.0255 -89.5908 180.878 52.0255 -89.5908 151.572 
52.6367 -93.7203 192.197 4.2444 -93.7203 192.197 52.0255 -71.9922 163.291 
52.0255 -107.217 163.291 52.0255 -93.7203 195.689 52.0255 -93.7203 150.208 
51.055 -97.8499 192.197 5.58314 -97.8499 192.197 52.0255 -74.6224 159.161 
52.0255 -103.954 159.161 52.0255 -97.8499 205.77 52.0255 -97.8499 195.213 
52.0255 -97.8499 189.416 52.0255 -97.8499 152.184 51.111 -101.979 192.197 
7.16296 -101.979 192.197 52.0255 -83.1927 155.032 52.0255 -100.942 155.032 
52.0255 -101.979 206.393 52.0255 -101.979 200.484 52.0255 -101.979 187.822 
52.0255 -101.979 156.662 52.2203 -106.109 192.197 9.17889 -106.109 192.197 
52.0255 -89.9919 150.902 52.0255 -96.2065 150.902 52.0255 -106.109 206.962 
52.0255 -106.109 203.499 52.0255 -106.109 193.303 52.0255 -106.109 161.083 
50.9185 -110.238 192.197 11.476 -110.238 192.197 52.0255 -110.238 190.283 
52.0255 -110.238 176.725 45.363 -114.368 192.197 13.8621 -114.368 192.197 
37.193 -118.498 192.197 15.9807 -118.498 192.197 47.896 -95.3371 208.716 
47.896 -111.834 208.716 47.896 -93.5799 204.586 47.896 -112.968 204.586 
47.896 -93.36 200.457 47.896 -113.31 200.457 47.896 -88.1881 196.327 
47.896 -112.756 196.327 47.896 -84.5109 192.197 47.896 -112.407 192.197 
23.1323 -68.9431 188.068 8.35496 -68.9431 188.068 47.896 -82.4575 188.068 
47.896 -112.377 188.068 39.9563 -73.0726 188.068 0.821919 -73.0726 188.068 
47.896 -79.9989 183.938 47.896 -111.898 183.938 47.896 -73.0726 179.057 
47.896 -73.0726 159.321 45.1203 -77.2021 188.068 1.59809 -77.2021 188.068 
47.896 -76.8845 179.809 47.896 -109.194 179.809 47.896 -77.2021 181.46 
47.896 -77.2021 155.105 47.2737 -81.3317 188.068 -0.788367 -81.3317 188.068 
47.896 -69.8661 175.679 47.896 -115.889 175.679 47.896 -81.3317 185.834 
47.896 -81.3317 151.211 49.5286 -85.4612 188.068 0.382949 -85.4612 188.068 
47.896 -69.2633 171.55 47.896 -114.997 171.55 47.896 -85.4612 194.936 
47.896 -85.4612 146.929 51.3387 -89.5908 188.068 2.61004 -89.5908 188.068 
47.896 -70.4034 167.42 47.896 -114.996 167.42 47.896 -89.5908 197.577 
47.896 -89.5908 142.892 52.9913 -93.7203 188.068 4.3528 -93.7203 188.068 
47.896 -71.2222 163.291 47.896 -118.081 163.291 47.896 -93.7203 205.007 
47.896 -93.7203 143.975 53.0491 -97.8499 188.068 5.71315 -97.8499 188.068 
47.896 -73.2341 159.161 47.896 -113.634 159.161 47.896 -97.8499 210.728 
47.896 -97.8499 145 51.7508 -101.979 188.068 7.33854 -101.979 188.068 
47.896 -77.2734 155.032 47.896 -112.657 155.032 47.896 -101.979 211.857 
47.896 -101.979 145.958 53.9681 -106.109 188.068 9.22128 -106.109 188.068 
47.896 -81.6774 150.902 47.896 -105.779 150.902 47.896 -106.109 212.316 
47.896 -106.109 154.359 53.306 -110.238 188.068 11.7726 -110.238 188.068 
47.896 -86.2203 146.773 47.896 -103.011 146.773 47.896 -110.238 210.801 
47.896 -110.238 182.747 47.896 -110.238 178.841 47.896 -110.238 152.219 
45.8457 -114.368 188.068 14.507 -114.368 188.068 47.896 -114.368 176.366 
47.896 -114.368 161.751 41.0526 -118.498 188.068 16.2919 -118.498 188.068 
43.7664 -99.7996 216.975 43.7664 -106.038 216.975 43.7664 -92.9974 212.845 
43.7664 -110.422 212.845 43.7664 -91.8222 208.716 43.7664 -112.436 208.716 
43.7664 -90.7234 204.586 43.7664 -113.822 204.586 43.7664 -90.0466 200.457 
43.7664 -114.784 200.457 43.7664 -81.84 196.327 43.7664 -115.09 196.327 
43.7664 -78.389 192.197 43.7664 -115.356 192.197 29.9929 -68.9431 183.938 
10.3005 -68.9431 183.938 43.7664 -74.6909 188.068 43.7664 -116.113 188.068 
43.7664 -68.9431 176.378 43.7664 -68.9431 168.451 42.337 -73.0726 183.938 
6.21311 -73.0726 183.938 43.7664 -73.6085 183.938 43.7664 -116.4 183.938 
43.7664 -73.0726 182.234 43.7664 -73.0726 157.908 46.7036 -77.2021 183.938 
-0.520041 -77.2021 183.938 43.7664 -70.3222 179.809 43.7664 -115.81 179.809 
43.7664 -77.2021 191.541 43.7664 -77.2021 155.038 48.4516 -81.3317 183.938 
-1.62132 -81.3317 183.938 43.7664 -68.6622 175.679 43.7664 -119.02 175.679 
43.7664 -81.3317 195.374 43.7664 -81.3317 151.09 50.1754 -85.4612 183.938 
-0.306982 -85.4612 183.938 43.7664 -68.069 171.55 43.7664 -118.533 171.55 
43.7664 -85.4612 197.353 43.7664 -85.4612 141.638 51.839 -89.5908 183.938 
2.73903 -89.5908 183.938 43.7664 -69.2542 167.42 43.7664 -118.32 167.42 
43.7664 -89.5908 198.731 43.7664 -89.5908 137.554 53.9222 -93.7203 183.938 
4.46674 -93.7203 183.938 43.7664 -70.2635 163.291 43.7664 -117.376 163.291 
43.7664 -93.7203 214.224 43.7664 -93.7203 138.652 55.8702 -97.8499 183.938 
5.45041 -97.8499 183.938 43.7664 -71.8938 159.161 43.7664 -117.258 159.161 
43.7664 -97.8499 216.746 43.7664 -97.8499 140.434 55.027 -101.979 183.938 
7.08325 -101.979 183.938 43.7664 -77.2076 155.032 43.7664 -118.67 155.032 
43.7664 -101.979 217.325 43.7664 -101.979 143.38 56.2672 -106.109 183.938 
9.09313 -106.109 183.938 43.7664 -81.4865 150.902 43.7664 -113.041 150.902 
43.7664 -106.109 216.92 43.7664 -106.109 144.645 52.0372 -110.238 183.938 
11.6594 -110.238 183.938 43.7664 -84.0739 146.773 43.7664 -110.744 146.773 
[...]
POINT_DATA 1425
FIELD FieldData 1
BIP 1 1425 float
6.20334 5.08505 6.70985 4.00126 6.7684 3.8276 6.09713 5.35512 6.49623 
3.38251 7.15732 2.44286 7.50653 3.13575 7.21587 3.94959 5.60355 3.46463 
6.25447 3.25509 6.59435 2.61853 6.81917 1.42099 7.07252 2.13031 4.44113 
2.97041 5.19914 2.40184 5.21062 2.55961 5.85041 1.58202 5.91192 1.506 
5.94231 1.13293 5.05837 1.42515 2.49445 2.12855 5.39335 2.63342 3.7588 
1.68669 5.23585 1.50026 4.84823 1.48982 4.76699 1.27463 4.54001 1.32605 
4.16873 1.48775 4.00378 1.84889 3.95354 2.16204 6.38249 3.20175 5.64061 
2.52198 5.84112 2.29098 5.60195 1.5971 5.03203 1.75936 3.32262 1.6529 
2.8721 1.52778 2.78844 1.83258 3.16383 2.1104 4.67546 2.59155 5.01339 
3.59241 5.84542 2.90521 7.91124 3.44494 6.98092 2.33842 6.36907 2.23925 
5.01303 2.28105 3.34857 2.1637 2.55503 2.18037 2.88312 2.24613 3.022 
2.3253 3.50133 2.90182 5.89932 5.14466 4.51082 4.12891 2.50486 2.32393 
7.48105 3.73566 1.55558 1.77701 6.21785 3.4527 1.51 1.57232 5.93006 
2.58832 1.65875 1.59881 5.56644 2.62025 1.68737 1.57021 1.69065 2.48185 
5.36306 2.49444 1.77399 2.31009 1.51903 2.34041 3.0262 2.52801 1.95369 
2.13244 3.14674 1.75543 2.99852 2.36966 2.59048 1.74194 2.81362 2.34211 
2.4948 1.96245 2.54121 2.51908 2.31174 3.10074 3.92707 2.92377 4.75919 
2.54745 5.17792 2.78001 5.07821 5.29446 3.09127 2.15877 3.93234 5.74951 
4.66204 3.31933 3.09293 1.70302 7.13444 4.2818 3.44908 1.44005 1.96181 
1.85836 4.54545 3.96548 2.82743 0.866346 1.23398 2.01231 4.36052 4.11034 
2.07447 0.435184 1.2016 2.16975 4.65731 2.6061 1.8232 1.24138 1.09394 
0.836377 1.13384 2.30058 5.00784 2.93482 1.59142 0.870986 2.99351 2.73481 
4.76257 2.89295 1.45882 0.617228 5.12522 2.16234 3.13261 3.06199 2.04119 
0.661409 3.62439 2.99989 3.43602 2.40778 3.68114 2.51179 2.23666 1.59509 
3.55914 2.55205 3.04591 1.1284 3.07297 2.44771 2.73598 2.44705 3.42483 
2.83976 2.99706 0.441096 2.02146 2.62111 1.92711 0.448545 1.67336 3.4006 
4.38722 3.66487 4.93434 4.72821 5.05874 3.87529 5.74937 2.65068 5.59683 
1.94278 4.59774 1.20138 3.42274 5.54349 3.74 1.39217 6.37776 3.43732 
3.10018 1.25097 3.71187 1.77612 4.15818 4.32761 2.74153 0.898164 3.09134 
1.91478 3.72316 4.03091 3.2796 0.563372 3.29992 2.13363 3.99057 2.6874 
2.03545 0.500093 5.41707 2.74541 4.77186 2.95317 1.9858 0.401235 5.80065 
2.28561 3.78764 2.73206 2.0335 0.460403 5.01314 2.40504 3.63676 2.66571 
1.77226 0.402338 5.39618 2.35705 3.02818 2.27881 1.92018 0.455151 5.63351 
1.05213 2.80891 2.04058 2.15138 0.791974 5.78544 0.381625 1.81788 2.49342 
2.83433 1.19791 5.35401 1.13887 0.843202 0.591128 1.07247 3.32312 0.661486 
0.390201 2.32533 3.61568 6.74127 7.08266 5.21314 4.86077 5.21486 4.96716 
5.49588 4.57372 6.23945 3.66606 6.31865 2.58703 4.48095 1.68163 5.0988 
6.24171 5.22975 1.42221 4.00111 2.66343 6.6227 4.48556 6.33685 0.93953 
6.77461 1.93845 3.71664 4.30181 3.85466 0.828653 4.48065 1.58924 2.97102 
3.43784 4.03094 0.6511 5.51242 1.89475 3.39278 2.49149 3.09288 0.584025 
6.44638 2.25704 3.38161 2.55171 2.50485 0.51158 6.24059 1.50513 3.32613 
2.32688 2.10087 0.570256 5.3471 1.98336 3.21797 2.0102 1.80259 0.505802 
6.57329 1.96476 2.73443 1.94999 1.58967 0.425499 6.88504 1.46225 2.47968 
1.47632 1.89146 0.455458 7.06161 0.454325 1.44058 2.12001 1.76764 0.383749 
4.96896 0.403641 1.07703 2.45054 2.26449 1.8924 4.34967 0.439865 1.01247 
3.80804 1.81283 1.96378 0.790809 0.574295 0.430649 0.41575 1.30311 3.26139 
6.33002 8.19981 6.14365 6.32109 5.15653 5.70297 4.80315 5.22367 5.80472 
4.71038 7.97857 4.82372 7.46411 4.2274 6.68423 3.27631 5.86338 7.03243 
6.51753 2.79643 5.10961 2.2916 3.91408 4.96849 5.69591 2.35031 6.53467 
2.60877 2.54243 4.06544 5.01686 0.6352 7.86009 2.3589 2.33372 2.98542 
5.00219 0.582678 7.77364 1.98923 2.45984 2.42976 3.8869 0.426651 5.77912 
1.33399 1.641 2.1389 2.82 1.8082 2.63872 0.650768 5.27286 1.51462 
2.17888 2.01004 1.91965 0.768398 6.60427 1.17767 1.51822 1.86443 1.77728 
0.880415 7.27633 1.40982 2.18364 1.51912 2.26836 0.712615 7.35094 1.30665 
1.33259 0.923731 1.48627 0.553194 7.81982 0.458405 0.7477 0.866852 0.867577 
1.47444 1.40223 0.380719 5.51203 0.439742 0.707343 2.11034 2.22451 0.438985 
4.68488 0.32279 0.858433 2.04249 1.94242 0.651317 3.12315 0.770757 0.694168 
0.54014 0.705811 0.758339 1.68408 2.99913 1.59554 1.28479 2.50708 0.64425 
2.10713 3.62634 5.18492 6.13304 5.96985 6.10355 5.32099 6.11273 4.73065 
5.68074 3.75535 5.29717 4.93662 5.85626 5.78639 5.75629 6.52617 5.69586 
6.93013 4.84981 3.71558 6.51678 6.71644 3.97271 5.71699 2.29808 2.80355 
5.57045 5.87041 3.45898 6.8563 2.92065 1.64778 3.20396 5.70392 1.58907 
6.17467 2.91238 1.77334 2.81031 5.36513 0.443808 5.76495 2.41973 1.16947 
2.09364 4.26289 0.823813 3.70715 1.34211 1.71393 1.93491 1.93975 1.87594 
1.78341 0.986448 3.57275 1.18935 6.11262 1.59135 0.96451 1.42195 3.15755 
1.74303 5.18008 1.51781 1.75954 1.49792 2.32525 1.4767 4.88603 1.02905 
1.38905 1.08073 2.57104 1.50849 4.94466 0.920228 0.805181 0.868429 0.755196 
1.24382 6.12579 0.728331 0.347064 0.78845 1.85318 0.483601 5.87098 0.760848 
0.643181 1.64706 2.34712 0.723174 5.82541 0.503177 0.635363 0.490284 0.726848 
2.74316 1.91313 0.767945 5.11457 0.903534 0.465764 0.422259 1.02394 2.58618 
1.88464 0.795107 3.86028 1.71676 1.26937 1.81888 5.57377 4.18272 4.83881 
5.57896 4.45121 4.91374 4.23952 5.1793 5.58926 5.64572 6.98565 6.27753 
5.34377 5.75218 5.99353 6.27526 2.21013 5.17698 5.13376 5.87815 5.49737 
2.85343 1.75867 6.76455 5.37652 4.34133 5.95542 3.14442 0.743558 3.15544 
7.07559 3.58014 6.62665 2.13137 1.21497 2.76314 6.50502 1.57852 5.69964 
1.7513 1.16643 2.70452 5.02475 1.95713 4.37694 1.80947 1.48353 1.03255 
4.32869 1.9923 5.5334 1.71127 1.80519 0.900769 2.89914 2.06788 3.90223 
1.89119 1.58416 0.828195 1.62629 2.81631 3.337 1.40595 1.71748 0.678448 
2.49282 1.9094 3.458 1.3343 0.996962 0.840999 2.90466 1.46014 4.18601 
1.29041 0.334996 0.743021 2.57219 0.861797 5.41837 0.883909 0.500272 1.50766 
3.71707 0.605769 5.41649 0.608774 0.58527 2.60757 3.24163 0.635764 5.94851 
3.11354 2.10636 0.56744 1.59684 2.24072 2.32896 1.22445 5.01966 2.00316 
1.72003 1.7034 3.59566 1.66804 4.72636 4.81254 4.56988 4.18312 4.84241 
4.18017 5.39971 4.8826 5.51135 4.96806 4.7542 4.95476 5.14567 5.5217 
2.5524 4.22682 4.27818 5.87713 4.45436 6.36023 2.49285 3.92357 1.45587 
4.05727 4.62825 4.77776 4.41719 3.39179 1.05089 3.67664 5.45889 2.87925 
5.49418 2.29379 1.18058 3.23202 6.50229 2.23364 5.18294 1.56601 0.956154 
3.11522 5.25877 2.18543 4.62173 1.51896 1.66765 1.46364 4.46835 2.22266 
4.63912 1.2186 2.3199 0.80665 3.51085 2.59611 3.1869 1.20593 1.62371 
0.679695 2.15699 2.60798 1.54314 1.17111 2.09837 0.828761 1.12488 1.96696 
2.98908 1.09517 1.30754 1.3328 1.96568 1.59531 3.2422 0.978252 0.392562 
1.43177 3.24988 1.15811 4.96735 1.05623 0.401128 1.87487 3.98079 0.589753 
4.20432 0.622864 0.504659 2.4339 3.46517 0.774874 5.02232 0.633926 2.53121 
1.07091 5.38626 2.19353 1.46158 1.62764 4.49789 2.71746 4.61573 3.48388 
5.83558 3.55638 5.94276 3.79652 4.89862 3.97359 4.10815 4.9664 3.5183 
5.29824 1.8065 3.61929 3.41655 5.31508 3.4156 6.70718 1.22587 3.4991 
4.59581 4.58966 4.243 3.95214 1.29208 4.01252 6.6977 2.97387 5.94495 
2.09583 1.05456 2.77102 1.40098 3.16484 6.66223 2.87801 5.62962 1.47437 
1.35909 3.47658 6.1728 2.67852 4.50018 2.37812 1.84895 4.21352 2.46518 
4.25516 2.89439 1.02847 2.47802 2.07849 3.4625 2.21217 0.975416 1.22312 
1.95786 2.53906 2.3214 1.10671 0.966963 1.74384 1.68932 0.535663 0.685113 
1.27442 1.83431 1.38906 2.46953 0.382594 0.367389 2.06898 2.39528 0.984086 
3.6362 1.00695 0.411561 2.46173 3.40562 0.677522 3.36462 0.987654 0.772125 
2.02554 2.8597 0.946054 4.97566 2.03651 1.53281 0.682667 1.84712 0.467589 
0.524214 1.15682 4.96934 2.92907 4.25834 2.7914 5.5385 2.2665 7.05663 
3.07325 4.4694 4.00247 4.04209 4.37798 2.57612 4.72479 1.83159 1.60999 
3.71412 5.04374 2.88775 6.97315 1.77743 2.15258 6.40842 4.33485 4.38543 
4.55423 1.84416 1.93576 1.22128 3.95141 6.90212 2.88656 7.03416 1.19616 
1.43316 1.01829 1.81959 4.9754 6.91773 1.59827 4.93849 1.82944 6.42669 
5.48721 1.88224 3.81416 2.57704 1.34216 4.09785 2.15269 3.449 2.26855 
1.23765 2.69489 1.99779 3.22825 1.82138 1.00935 1.18209 1.54988 2.69776 
0.777582 1.0264 1.39484 1.33097 1.34361 0.47847 1.45145 1.04195 1.23389 
1.50927 0.863102 0.406182 2.11107 1.06635 0.800593 2.23146 0.937284 0.409591 
2.66537 0.627323 2.56484 0.865844 1.33549 1.85474 2.71679 2.21979 2.624 
3.48516 0.809823 4.38894 2.1657 1.3169 0.663156 4.79543 3.72193 3.11464 
2.05067 4.1631 2.39521 6.91982 2.56916 5.75115 2.97664 4.35055 3.24332 
1.8194 3.32037 2.62423 2.29366 6.38326 3.23315 2.97131 7.0344 2.74455 
1.20062 6.67008 2.46138 6.62996 5.55375 2.41895 1.55517 7.03167 2.23265 
5.59639 1.99097 2.20252 2.4769 6.54932 1.93193 2.9519 2.23015 4.09004 
5.84235 1.56869 3.36392 2.67819 2.109 4.44415 2.06711 2.95568 2.59904 
0.998527 3.05724 2.12972 2.87852 1.85855 0.966538 2.2831 1.89252 2.18299 
1.51981 1.31479 1.80611 1.16516 1.55386 0.382194 1.61648 1.3723 1.06496 
1.11226 0.551803 1.92946 0.977506 1.51902 0.435356 2.30478 0.696643 0.792597 
2.19507 0.716188 0.416871 0.429378 1.47183 1.99588 1.21555 1.72098 1.71894 
2.4116 1.25715 1.01862 2.9774 2.60203 2.89892 2.05022 4.70507 2.10651 
6.10862 2.40362 7.88264 2.49761 6.31102 2.47794 3.31242 2.46447 5.79601 
2.26692 6.22759 6.7564 3.14156 2.05779 6.46504 1.93249 5.69804 6.76601 
2.98809 1.17706 7.01705 1.28177 4.05788 1.66542 2.46071 7.28865 0.792356 
2.78464 2.47466 1.27165 1.6003 1.53613 6.81817 0.707598 2.98712 2.70593 
2.38698 4.76184 2.4731 2.48401 2.24097 0.817993 4.01623 2.73856 2.33888 
2.84514 0.879204 1.98951 2.39774 1.25547 1.71537 1.21919 2.17732 1.63593 
1.09718 0.693425 1.69634 1.68911 0.464097 1.28993 0.664616 1.32705 1.56789 
2.42825 0.744518 0.401509 0.585104 1.52583 0.699427 0.533708 0.843139 2.08417 
1.46628 2.78173 1.67282 3.40315 2.1637 5.50662 2.48199 5.43855 2.58558 
2.88839 3.5138 5.26449 2.41069 5.00307 5.44707 4.3685 2.5505 5.4444 
2.00724 3.49579 4.54902 3.57246 1.13014 4.09126 1.53551 3.02093 2.64162 
2.29087 5.30695 1.03386 2.2879 2.75637 1.46478 1.66318 5.63183 0.845707 
1.92684 2.74197 5.08339 1.83756 1.75695 2.26018 0.465 4.33667 2.87571 
1.66242 2.24697 0.526322 3.36118 2.80883 1.76273 1.25375 2.52892 1.64499 
1.17059 0.587009 0.51759 0.910867 0.461003 1.24447 0.491345 0.591433 1.92719 
1.23482 0.472147 1.00115 2.8946 1.87291 3.85699 2.33618 4.33553 4.19568 
4.0797 2.98316 4.27998 3.91045 3.70786 3.00384 4.23585 3.66228 3.28561 
2.57458 4.26164 3.07493 2.99316 1.67801 4.84784 1.88911 4.20659 3.49753 
2.35684 5.50587 1.31191 3.44607 2.92148 2.3535 5.26462 0.976975 2.38451 
2.25509 5.06561 0.768907 0.992876 2.3055 4.45295 1.11094 0.956063 2.90805 
3.94065 3.48057 0.854007 1.18129 3.08611 1.82097 1.09644 0.329989 1.33663 
1.40848 0.434893 0.722174 2.1038 1.35438 0.622589 0.629317 2.64238 1.04283 
0.584363 0.793793 3.50005 1.61171 3.08319 3.37496 2.97181 2.82578 3.86499 
2.4283 4.1993 4.29212 2.45177 3.0672 2.11761 3.42381 3.26167 1.92836 
4.07517 1.81131 2.2333 1.99557 1.68641 4.88983 1.48163 1.48511 1.96945 
4.36157 1.20883 1.1547 1.31476 3.96558 1.02877 1.0164 1.37889 3.39588 
1.35284 1.31495 0.511602 2.18247 1.37554 0.779279 0.883079 0.96015 0.807394 
2.22163 2.33056 1.98201 1.53566 2.74328 2.38865 1.88395 3.46992 2.80136 
3.42031 1.5019 1.44831 3.52274 3.38508 1.36724 0.825569 1.20096 3.66744 
2.45266 1.12457 0.465 1.24489 3.27086 1.32895 0.910336 0.709818 0.713174 
2.367 0.967575 1.03031 0.749131 1.40183 0.887909 1.01129 1.03326 0.794494 
0.625462 1.62106 1.48599 3.15649 2.61773 1.73343 1.67577 4.41596 3.48191 
1.69632 1.68821 2.08724 1.15681 3.21411 4.20281 2.76108 4.32294 2.97256 
1.52701 2.25225 0.820289 
